TITLE = "SU2 Simulation"
VARIABLES = "Iteration","CLift","CDrag","CSideForce","CMx","CMy","CMz","CFx","CFy","CFz","CL/CD","Res_Flow[0]","Res_Flow[1]","Res_Flow[2]","Res_Flow[3]","Res_Flow[4]","Res_Turb[0]","Linear_Solver_Iterations","Time(min)"
ZONE T= "Convergence history"
           0, 0.7809470018, 1.2070642661, 0.0000000000, 0.0000000000, 0.0000000000, 0.2050179917, 1.1789732057, 0.8227420873, 0.0000000000, 0.6469804664, -2.0948383432, -9.9023211478, -9.9189832957, 3.3892689640, 0.0000000000, -5.2267581136, 3.0000000000, 0.0082915500
           1, 0.7366019838, 1.1023575196, 0.0000000000, 0.0000000000, 0.0000000000, 0.1990737847, 1.0758837583, 0.7747572021, 0.0000000000, 0.6682060681, -2.3307613538, 0.0131591698, 0.2347750665, 3.1659657860, 0.0000000000, -5.6394214039, 3.0000000000, 0.0166775667
           2, 0.6603871328, 0.9915011157, 0.0000000000, 0.0000000000, 0.0000000000, 0.1763761917, 0.9677645811, 0.6947066598, 0.0000000000, 0.6660477960, -2.6142787458, -0.1860243230, -0.1757554197, 2.8773991868, 0.0000000000, -6.0499818741, 4.0000000000, 0.0256359833
           3, 0.6092465286, 0.9124107069, 0.0000000000, 0.0000000000, 0.0000000000, 0.1621822371, 0.8905137536, 0.6408275004, 0.0000000000, 0.6677327699, -2.7114712207, -0.2773819296, -0.2560282634, 2.7759829563, 0.0000000000, -6.3951097145, 4.0000000000, 0.0346208833
           4, 0.5835019956, 0.8646412606, 0.0000000000, 0.0000000000, 0.0000000000, 0.1550585348, 0.8436752453, 0.6134257648, 0.0000000000, 0.6748486595, -2.7896278625, -0.3577035854, -0.2951400344, 2.6956869948, 0.0000000000, -6.5328173788, 5.0000000000, 0.0440997000
           5, 0.5698837797, 0.8344919813, 0.0000000000, 0.0000000000, 0.0000000000, 0.1500819855, 0.8140214030, 0.5987600060, 0.0000000000, 0.6829110315, -2.8307270718, -0.4216062152, -0.3222505155, 2.6541869230, 0.0000000000, -6.6230346129, 5.0000000000, 0.0534479667
           6, 0.5638164465, 0.8123672246, 0.0000000000, 0.0000000000, 0.0000000000, 0.1476343791, 0.7921227111, 0.5919215349, 0.0000000000, 0.6940413515, -2.8544037797, -0.4695670724, -0.3397927742, 2.6305097970, 0.0000000000, -6.6896141944, 5.0000000000, 0.0628534333
           7, 0.5608100248, 0.7938566264, 0.0000000000, 0.0000000000, 0.0000000000, 0.1462374622, 0.7737287604, 0.5882686737, 0.0000000000, 0.7064374172, -2.8673898715, -0.5053017807, -0.3487310163, 2.6174334935, 0.0000000000, -6.7490147037, 5.0000000000, 0.0722174333
           8, 0.5591709948, 0.7771204255, 0.0000000000, 0.0000000000, 0.0000000000, 0.1454015826, 0.7570602292, 0.5860445089, 0.0000000000, 0.7195422698, -2.8724780450, -0.5303614390, -0.3492100757, 2.6121578718, 0.0000000000, -6.8064241062, 5.0000000000, 0.0815865500
           9, 0.5580689692, 0.7612324192, 0.0000000000, 0.0000000000, 0.0000000000, 0.1448023118, 0.7412205652, 0.5843867248, 0.0000000000, 0.7331124571, -2.8713635208, -0.5442088371, -0.3428064796, 2.6130125656, 0.0000000000, -6.8473415758, 5.0000000000, 0.0909554667
          10, 0.5570811686, 0.7456458252, 0.0000000000, 0.0000000000, 0.0000000000, 0.1442487280, 0.7256781282, 0.5828536517, 0.0000000000, 0.7471123015, -2.8653435788, -0.5459266860, -0.3309858300, 2.6186678152, 0.0000000000, -6.8813828241, 5.0000000000, 0.1003364667
          11, 0.5560713612, 0.7300457378, 0.0000000000, 0.0000000000, 0.0000000000, 0.1436983774, 0.7101229767, 0.5812981127, 0.0000000000, 0.7616938671, -2.8559170266, -0.5354831402, -0.3156799792, 2.6275748231, 0.0000000000, -6.9103521569, 5.0000000000, 0.1097982833
          12, 0.5549887897, 0.7142322700, 0.0000000000, 0.0000000000, 0.0000000000, 0.1431450427, 0.6943571241, 0.5796623813, 0.0000000000, 0.7770424454, -2.8448323128, -0.5145056206, -0.2989639297, 2.6379581688, 0.0000000000, -6.9392229069, 5.0000000000, 0.1192699833
          13, 0.5537968492, 0.6980688792, 0.0000000000, 0.0000000000, 0.0000000000, 0.1425888341, 0.6782453936, 0.5779050928, 0.0000000000, 0.7933269420, -2.8337264829, -0.4859166528, -0.2826918541, 2.6481790553, 0.0000000000, -6.9667938602, 5.0000000000, 0.1287334333
          14, 0.5524464875, 0.6814587611, 0.0000000000, 0.0000000000, 0.0000000000, 0.1420221518, 0.6616927581, 0.5759738349, 0.0000000000, 0.8106821998, -2.8235891989, -0.4529016021, -0.2681357572, 2.6572568784, 0.0000000000, -6.9881521725, 5.0000000000, 0.1382000000
          15, 0.5508686850, 0.6643303498, 0.0000000000, 0.0000000000, 0.0000000000, 0.1414189284, 0.6446301128, 0.5737971240, 0.0000000000, 0.8292089699, -2.8148011715, -0.4182098528, -0.2559665527, 2.6648488237, 0.0000000000, -7.0066061154, 5.0000000000, 0.1476484833
          16, 0.5490362133, 0.6466545538, 0.0000000000, 0.0000000000, 0.0000000000, 0.1407778493, 0.6270293378, 0.5713467293, 0.0000000000, 0.8490409756, -2.8073385392, -0.3838961788, -0.2463439365, 2.6710343005, 0.0000000000, -7.0228760903, 5.0000000000, 0.1570974833
          17, 0.5468947699, 0.6284320307, 0.0000000000, 0.0000000000, 0.0000000000, 0.1400796139, 0.6088929919, 0.5685684049, 0.0000000000, 0.8702528566, -2.8009182227, -0.3512881070, -0.2390471790, 2.6761594507, 0.0000000000, -7.0372863689, 5.0000000000, 0.1665718333
          18, 0.5443665117, 0.6096804612, 0.0000000000, 0.0000000000, 0.0000000000, 0.1392876580, 0.5902414713, 0.5653849745, 0.0000000000, 0.8928718343, -2.7951201793, -0.3210960902, -0.2336190534, 2.6807039479, 0.0000000000, -7.0504644914, 5.0000000000, 0.1760324667
          19, 0.5413919941, 0.5904210704, 0.0000000000, 0.0000000000, 0.0000000000, 0.1383762298, 0.5710980700, 0.5617377734, 0.0000000000, 0.9169591351, -2.7894887677, -0.2936012108, -0.2295012980, 2.6851687626, 0.0000000000, -7.0644061102, 5.0000000000, 0.1855041500
          20, 0.5379224832, 0.5706680779, 0.0000000000, 0.0000000000, 0.0000000000, 0.1373214743, 0.5514787056, 0.5575785956, 0.0000000000, 0.9426188428, -2.7836043365, -0.2688174744, -0.2261477379, 2.6899985538, 0.0000000000, -7.0757674575, 5.0000000000, 0.1949599667
          21, 0.5339095800, 0.5504289652, 0.0000000000, 0.0000000000, 0.0000000000, 0.1360984562, 0.5313925501, 0.5528593339, 0.0000000000, 0.9699881616, -2.7771279007, -0.2466266014, -0.2231010454, 2.6955360228, 0.0000000000, -7.0844017526, 5.0000000000, 0.2044070167
          22, 0.5293281322, 0.5297106282, 0.0000000000, 0.0000000000, 0.0000000000, 0.1346941956, 0.5108473760, 0.5475550927, 0.0000000000, 0.9992779152, -2.7698271818, -0.2268473035, -0.2200231319, 2.7020015450, 0.0000000000, -7.0910005596, 5.0000000000, 0.2138792333
          23, 0.5241603017, 0.5085271866, 0.0000000000, 0.0000000000, 0.0000000000, 0.1330973741, 0.4898579191, 0.5416485395, 0.0000000000, 1.0307419456, -2.7615807269, -0.2092776133, -0.2166934972, 2.7094986649, 0.0000000000, -7.0957303451, 5.0000000000, 0.2233209167
          24, 0.5183530202, 0.4868868335, 0.0000000000, 0.0000000000, 0.0000000000, 0.1312654503, 0.4684342262, 0.5350869256, 0.0000000000, 1.0646273106, -2.7523806991, -0.1937076072, -0.2129853910, 2.7180181405, 0.0000000000, -7.0987427391, 5.0000000000, 0.2327654333
          25, 0.5119130897, 0.4648150242, 0.0000000000, 0.0000000000, 0.0000000000, 0.1291942990, 0.4466014984, 0.5278779402, 0.0000000000, 1.1013264698, -2.7423218702, -0.1799245005, -0.2088164978, 2.7274526025, 0.0000000000, -7.1001893211, 5.0000000000, 0.2422536167
          26, 0.5048346656, 0.4423423596, 0.0000000000, 0.0000000000, 0.0000000000, 0.1268654060, 0.4243905228, 0.5200168140, 0.0000000000, 1.1412758797, -2.7315765114, -0.1677106950, -0.2041339946, 2.7376237771, 0.0000000000, -7.1002752773, 5.0000000000, 0.2517156833
          27, 0.4971045520, 0.4195034700, 0.0000000000, 0.0000000000, 0.0000000000, 0.1242541965, 0.4018363706, 0.5114915720, 0.0000000000, 1.1849831706, -2.7203604953, -0.1568512448, -0.1989101104, 2.7483153444, 0.0000000000, -7.0996065055, 5.0000000000, 0.2611782000
          28, 0.4887411109, 0.3963439120, 0.0000000000, 0.0000000000, 0.0000000000, 0.1213539361, 0.3789839272, 0.5023221605, 0.0000000000, 1.2331238000, -2.7088823217, -0.1471320735, -0.1931016385, 2.7593233094, 0.0000000000, -7.0982563026, 5.0000000000, 0.2706312000
          29, 0.4797917265, 0.3729130291, 0.0000000000, 0.0000000000, 0.0000000000, 0.1181790866, 0.3558808465, 0.4925576628, 0.0000000000, 1.2866048893, -2.6973240563, -0.1383604710, -0.1866923444, 2.7704728558, 0.0000000000, -7.0954503170, 5.0000000000, 0.2800676833
          30, 0.4702933970, 0.3492649397, 0.0000000000, 0.0000000000, 0.0000000000, 0.1147369742, 0.3325799179, 0.4822369496, 0.0000000000, 1.3465233509, -2.6858220354, -0.1303687987, -0.1796845314, 2.7816359769, 0.0000000000, -7.0913736631, 5.0000000000, 0.2895575167
          31, 0.4602703718, 0.3254497704, 0.0000000000, 0.0000000000, 0.0000000000, 0.1110290823, 0.3091303879, 0.4713860112, 0.0000000000, 1.4142593225, -2.6744545406, -0.1230230344, -0.1721103667, 2.7927419638, 0.0000000000, -7.0863101650, 5.0000000000, 0.2990378667
          32, 0.4497570507, 0.3015336667, 0.0000000000, 0.0000000000, 0.0000000000, 0.1070603928, 0.2855971567, 0.4600415425, 0.0000000000, 1.4915649571, -2.6632238359, -0.1162207790, -0.1640369050, 2.8037977633, 0.0000000000, -7.0803605214, 5.0000000000, 0.3084910167
          33, 0.4388164182, 0.2775934289, 0.0000000000, 0.0000000000, 0.0000000000, 0.1028510108, 0.2620547717, 0.4482691795, 0.0000000000, 1.5807882047, -2.6520882630, -0.1098866644, -0.1555635288, 2.8148524170, 0.0000000000, -7.0735475213, 5.0000000000, 0.3179934000
          34, 0.4274583298, 0.2536947660, 0.0000000000, 0.0000000000, 0.0000000000, 0.0983904347, 0.2385685563, 0.4360810727, 0.0000000000, 1.6849316074, -2.6409884598, -0.1039662013, -0.1468132087, 2.8259680316, 0.0000000000, -7.0659256271, 5.0000000000, 0.3274766667
          35, 0.4157142640, 0.2299050242, 0.0000000000, 0.0000000000, 0.0000000000, 0.0937018459, 0.2152047130, 0.4235110399, 0.0000000000, 1.8081999966, -2.6298484007, -0.0984139998, -0.1379174684, 2.8372194016, 0.0000000000, -7.0576082613, 5.0000000000, 0.3369542167
          36, 0.4036112090, 0.2062925228, 0.0000000000, 0.0000000000, 0.0000000000, 0.0888045787, 0.1920305740, 0.4105884455, 0.0000000000, 1.9564994576, -2.6185926419, -0.0931806893, -0.1289974243, 2.8486777119, 0.0000000000, -7.0486642552, 5.0000000000, 0.3464243333
          37, 0.3911452381, 0.1829217396, 0.0000000000, 0.0000000000, 0.0000000000, 0.0836931093, 0.1691107152, 0.3973116234, 0.0000000000, 2.1383201299, -2.6071919111, -0.0882241244, -0.1201605905, 2.8603617681, 0.0000000000, -7.0392360822, 5.0000000000, 0.3558732667
          38, 0.3783555068, 0.1598594316, 0.0000000000, 0.0000000000, 0.0000000000, 0.0783976164, 0.1465104810, 0.3837220431, 0.0000000000, 2.3668012766, -2.5956371952, -0.0834921620, -0.1114830514, 2.8722664162, 0.0000000000, -7.0294550268, 5.0000000000, 0.3653784000
          39, 0.3652465778, 0.1371712465, 0.0000000000, 0.0000000000, 0.0000000000, 0.0729241090, 0.1242953193, 0.3698265635, 0.0000000000, 2.6627051009, -2.5839423962, -0.0789434477, -0.1030152491, 2.8843633568, 0.0000000000, -7.0193440991, 5.0000000000, 0.3748583833
          40, 0.3518373359, 0.1149084878, 0.0000000000, 0.0000000000, 0.0000000000, 0.0672912992, 0.1025158407, 0.3556458546, 0.0000000000, 3.0618916190, -2.5721535152, -0.0745282642, -0.0947762069, 2.8965927721, 0.0000000000, -7.0088739725, 5.0000000000, 0.3843277833
          41, 0.3381552456, 0.0931290106, 0.0000000000, 0.0000000000, 0.0000000000, 0.0615139532, 0.0812289029, 0.3412093903, 0.0000000000, 3.6310408895, -2.5603351133, -0.0702188614, -0.0867657163, 2.9088760228, 0.0000000000, -6.9981906114, 5.0000000000, 0.3938081333
          42, 0.3241903693, 0.0718834003, 0.0000000000, 0.0000000000, 0.0000000000, 0.0556096358, 0.0604854082, 0.3265090109, 0.0000000000, 4.5099476086, -2.5485599936, -0.0659770381, -0.0789650684, 2.9211290227, 0.0000000000, -6.9874329148, 5.0000000000, 0.4033092167
          43, 0.3098942926, 0.0512237980, 0.0000000000, 0.0000000000, 0.0000000000, 0.0495566404, 0.0403391615, 0.3114981575, 0.0000000000, 6.0498109254, -2.5368948792, -0.0617803354, -0.0713439126, 2.9332797045, 0.0000000000, -6.9767130697, 5.0000000000, 0.4127862333
          44, 0.2953055361, 0.0311760673, 0.0000000000, 0.0000000000, 0.0000000000, 0.0433941604, 0.0208146614, 0.2962162330, 0.0000000000, 9.4721868836, -2.5254230872, -0.0575814120, -0.0638576865, 2.9452387012, 0.0000000000, -6.9661202203, 5.0000000000, 0.4222888333
          45, 0.2806560521, 0.0118182804, 0.0000000000, 0.0000000000, 0.0000000000, 0.0372314586, 0.0019818086, 0.2808977817, 0.0000000000, 23.7476216302, -2.5142329152, -0.0533285301, -0.0564431630, 2.9569125006, 0.0000000000, -6.9557614405, 5.0000000000, 0.4317784333
          46, 0.2657413231, -0.0067986715, 0.0000000000, 0.0000000000, 0.0000000000, 0.0309745356, -0.0161013743, 0.2653401938, 0.0000000000, -39.0872426504, -2.5033843209, -0.0489509258, -0.0490298661, 2.9682411957, 0.0000000000, -6.9457396753, 5.0000000000, 0.4412595833
          47, 0.2506013895, -0.0246293147, 0.0000000000, 0.0000000000, 0.0000000000, 0.0246497136, -0.0333908435, 0.2495850779, 0.0000000000, -10.1749233782, -2.4929539338, -0.0443172976, -0.0415292775, 2.9791464570, 0.0000000000, -6.9361219229, 5.0000000000, 0.4507294333
          48, 0.2352846961, -0.0416405847, 0.0000000000, 0.0000000000, 0.0000000000, 0.0182900425, -0.0498552518, 0.2336820070, 0.0000000000, -5.6503696562, -2.4829620934, -0.0392935914, -0.0338673269, 2.9896124605, 0.0000000000, -6.9269204157, 5.0000000000, 0.4602024333
          49, 0.2198393359, -0.0577957106, 0.0000000000, 0.0000000000, 0.0000000000, 0.0119263790, -0.0654595349, 0.2176803323, 0.0000000000, -3.8037309985, -2.4734125501, -0.0337412787, -0.0259641452, 2.9996399531, 0.0000000000, -6.9181336976, 5.0000000000, 0.4696935667
          50, 0.2043048043, -0.0730553287, 0.0000000000, 0.0000000000, 0.0000000000, 0.0055797682, -0.0801657366, 0.2016209037, 0.0000000000, -2.7965763466, -2.4643110635, -0.0274947542, -0.0177600928, 3.0092247629, 0.0000000000, -6.9097675726, 5.0000000000, 0.4791831167
          51, 0.1887402694, -0.0873756631, 0.0000000000, 0.0000000000, 0.0000000000, -0.0007081195, -0.0939321800, 0.1855643860, 0.0000000000, -2.1601011390, -2.4556192183, -0.0204182129, -0.0092276018, 3.0184095414, 0.0000000000, -6.9017877091, 5.0000000000, 0.4886358000
          52, 0.1731554302, -0.1007123239, 0.0000000000, 0.0000000000, 0.0000000000, -0.0069424073, -0.1067148422, 0.1695220270, 0.0000000000, -1.7193072656, -2.4472825568, -0.0124581079, -0.0003828657, 3.0272518904, 0.0000000000, -6.8941159436, 5.0000000000, 0.4981302500
          53, 0.1575752259, -0.1130299881, 0.0000000000, 0.0000000000, 0.0000000000, -0.0131130570, -0.1184792952, 0.1535199877, 0.0000000000, -1.3941010579, -2.4392373150, -0.0036167117, 0.0087271659, 3.0358181098, 0.0000000000, -6.8866777669, 5.0000000000, 0.5076422167
          54, 0.1420506775, -0.1242902911, 0.0000000000, 0.0000000000, 0.0000000000, -0.0191943738, -0.1291889849, 0.1376106014, 0.0000000000, -1.1428943986, -2.4314465894, 0.0060584605, 0.0180246682, 3.0441430961, 0.0000000000, -6.8794081742, 5.0000000000, 0.5171018333
          55, 0.1266454109, -0.1344434619, 0.0000000000, 0.0000000000, 0.0000000000, -0.0251557581, -0.1387963992, 0.1218591980, 0.0000000000, -0.9419975441, -2.4238832386, 0.0164432659, 0.0274019687, 3.0522479950, 0.0000000000, -6.8722663187, 5.0000000000, 0.5265899000
          56, 0.1113768703, -0.1434549851, 0.0000000000, 0.0000000000, 0.0000000000, -0.0309979751, -0.1472676546, 0.1062844199, 0.0000000000, -0.7763889852, -2.4165101889, 0.0273573157, 0.0367406577, 3.0601692307, 0.0000000000, -6.8651936243, 5.0000000000, 0.5360975167
          57, 0.0962763764, -0.1512939712, 0.0000000000, 0.0000000000, 0.0000000000, -0.0367183268, -0.1545729776, 0.0909186503, 0.0000000000, -0.6363530266, -2.4093172152, 0.0385841748, 0.0459153407, 3.0679120193, 0.0000000000, -6.8581646663, 5.0000000000, 0.5455964833
          58, 0.0814206279, -0.1579219630, 0.0000000000, 0.0000000000, 0.0000000000, -0.0422764551, -0.1606766208, 0.0758398878, 0.0000000000, -0.5155750748, -2.4023311659, 0.0499460435, 0.0548420560, 3.0754391361, 0.0000000000, -6.8511473879, 5.0000000000, 0.5550722500
          59, 0.0668111488, -0.1633066656, 0.0000000000, 0.0000000000, 0.0000000000, -0.0476890445, -0.1655463624, 0.0610507865, 0.0000000000, -0.4091146470, -2.3955312423, 0.0612804447, 0.0634417853, 3.0827732634, 0.0000000000, -6.8441166070, 5.0000000000, 0.5645518333
          60, 0.0525044622, -0.1674246891, 0.0000000000, 0.0000000000, 0.0000000000, -0.0529340264, -0.1691608065, 0.0466086539, 0.0000000000, -0.3136004762, -2.3889166057, 0.0724252112, 0.0716626220, 3.0899116266, 0.0000000000, -6.8369955970, 5.0000000000, 0.5740870500
          61, 0.0385522112, -0.1702591253, 0.0000000000, 0.0000000000, 0.0000000000, -0.0579919097, -0.1715048639, 0.0325656937, 0.0000000000, -0.2264325695, -2.3824803105, 0.0832408895, 0.0794691806, 3.0968613440, 0.0000000000, -6.8297839126, 5.0000000000, 0.5835845333
          62, 0.0249873576, -0.1717921746, 0.0000000000, 0.0000000000, 0.0000000000, -0.0628554604, -0.1725619003, 0.0189554707, 0.0000000000, -0.1454510814, -2.3761973874, 0.0936421149, 0.0868664730, 3.1036476786, 0.0000000000, -6.8224939440, 5.0000000000, 0.5930726333
          63, 0.0118268055, -0.1720313422, 0.0000000000, 0.0000000000, 0.0000000000, -0.0675274120, -0.1723400082, 0.0057946160, 0.0000000000, -0.0687479695, -2.3700659869, 0.1036158632, 0.0938682556, 3.1102707156, 0.0000000000, -6.8151268432, 5.0000000000, 0.6025678167
          64, -0.0008787779, -0.1709784789, 0.0000000000, 0.0000000000, 0.0000000000, -0.0719857465, -0.1708428121, -0.0068662992, 0.0000000000, 0.0051396992, -2.3640806576, 0.1131266049, 0.1004933562, 3.1167319887, 0.0000000000, -6.8076667642, 5.0000000000, 0.6120560333
          65, -0.0131228065, -0.1686531312, 0.0000000000, 0.0000000000, 0.0000000000, -0.0762356975, -0.1680900768, -0.0190213774, 0.0000000000, 0.0778094448, -2.3581855122, 0.1221842738, 0.1067815281, 3.1230933487, 0.0000000000, -6.8001671397, 5.0000000000, 0.6215593667
          66, -0.0249013719, -0.1650899886, 0.0000000000, 0.0000000000, 0.0000000000, -0.0802806325, -0.1641166076, -0.0306679275, 0.0000000000, 0.1508351421, -2.3523644960, 0.1307420113, 0.1127608125, 3.1293700567, 0.0000000000, -6.7926533603, 5.0000000000, 0.6310635000
          67, -0.0361603573, -0.1603240881, 0.0000000000, 0.0000000000, 0.0000000000, -0.0840876334, -0.1589593152, -0.0417530931, 0.0000000000, 0.2255453796, -2.3466284471, 0.1388947324, 0.1184852278, 3.1355453365, 0.0000000000, -6.7851194581, 5.0000000000, 0.6405817500
          68, -0.0469330864, -0.1544171897, 0.0000000000, 0.0000000000, 0.0000000000, -0.0876770061, -0.1526787547, -0.0523123403, 0.0000000000, 0.3039369289, -2.3409391822, 0.1466860505, 0.1239899303, 3.1416596395, 0.0000000000, -6.7775519001, 5.0000000000, 0.6501091333
          69, -0.0572110672, -0.1474269464, 0.0000000000, 0.0000000000, 0.0000000000, -0.0910385801, -0.1453328411, -0.0623392014, 0.0000000000, 0.3880638420, -2.3352996978, 0.1541263751, 0.1293063920, 3.1477072972, 0.0000000000, -6.7700009600, 5.0000000000, 0.6596211333
          70, -0.0669656787, -0.1394235722, 0.0000000000, 0.0000000000, 0.0000000000, -0.0941502697, -0.1369927478, -0.0718075322, 0.0000000000, 0.4803038516, -2.3297077882, 0.1612756705, 0.1344789856, 3.1536897071, 0.0000000000, -6.7625308691, 5.0000000000, 0.6691651333
          71, -0.0762005000, -0.1304845899, 0.0000000000, 0.0000000000, 0.0000000000, -0.0970102956, -0.1277358246, -0.0807236244, 0.0000000000, 0.5839808365, -2.3241606249, 0.1682155773, 0.1395436636, 3.1596095722, 0.0000000000, -6.7551241420, 5.0000000000, 0.6786890500
          72, -0.0849169734, -0.1206946063, 0.0000000000, 0.0000000000, 0.0000000000, -0.0996053067, -0.1176465758, -0.0890918828, 0.0000000000, 0.7035689166, -2.3186530676, 0.1749143885, 0.1445285445, 3.1654702488, 0.0000000000, -6.7477277070, 5.0000000000, 0.6882120833
          73, -0.0931653359, -0.1101464318, 0.0000000000, 0.0000000000, 0.0000000000, -0.1019479596, -0.1068159956, -0.0969657637, 0.0000000000, 0.8458316291, -2.3131957768, 0.1814650550, 0.1494652437, 3.1712594098, 0.0000000000, -6.7403990560, 5.0000000000, 0.6977496167
          74, -0.1009735732, -0.0989336234, 0.0000000000, 0.0000000000, 0.0000000000, -0.1040355445, -0.0953366035, -0.1043765125, 0.0000000000, 1.0206193773, -2.3077848778, 0.1878929862, 0.1543805217, 3.1769813353, 0.0000000000, -6.7331595180, 5.0000000000, 0.7072614333
          75, -0.1083036138, -0.0871532525, 0.0000000000, 0.0000000000, 0.0000000000, -0.1058306083, -0.0833067445, -0.1112894806, 0.0000000000, 1.2426801146, -2.3024230470, 0.1941846298, 0.1592943083, 3.1826364220, 0.0000000000, -6.7260170993, 5.0000000000, 0.7167829833
          76, -0.1151931805, -0.0749098876, 0.0000000000, 0.0000000000, 0.0000000000, -0.1073553680, -0.0708296021, -0.1177460300, 0.0000000000, 1.5377566859, -2.2971095619, 0.2004415085, 0.1642444456, 3.1882242051, 0.0000000000, -6.7189078451, 5.0000000000, 0.7263236833
          77, -0.1216895225, -0.0623020136, 0.0000000000, 0.0000000000, 0.0000000000, -0.1086223041, -0.0580019457, -0.1237968299, 0.0000000000, 1.9532197355, -2.2918414318, 0.2065690442, 0.1692372604, 3.1937474760, 0.0000000000, -6.7117450085, 5.0000000000, 0.7358321833
          78, -0.1278023858, -0.0494303183, 0.0000000000, 0.0000000000, 0.0000000000, -0.1096150176, -0.0449240603, -0.1294551466, 0.0000000000, 2.5855060236, -2.2866177288, 0.2126832743, 0.1742906777, 3.1992066548, 0.0000000000, -6.7045805857, 5.0000000000, 0.7453606333
          79, -0.1335148991, -0.0363833700, 0.0000000000, 0.0000000000, 0.0000000000, -0.1103108378, -0.0316850504, -0.1347072213, 0.0000000000, 3.6696682915, -2.2814360540, 0.2187173061, 0.1794134250, 3.2046051569, 0.0000000000, -6.6974178952, 5.0000000000, 0.7548643333
          80, -0.1388582568, -0.0232567242, 0.0000000000, 0.0000000000, 0.0000000000, -0.1107294891, -0.0183793208, -0.1395875756, 0.0000000000, 5.9706713456, -2.2762806692, 0.2247457993, 0.1846164143, 3.2099647222, 0.0000000000, -6.6903215062, 5.0000000000, 0.7643837167
          81, -0.1438210502, -0.0101376687, 0.0000000000, 0.0000000000, 0.0000000000, -0.1108561893, -0.0050945049, -0.1440878649, 0.0000000000, 14.1867972552, -2.2711591057, 0.2307226486, 0.1899187024, 3.2152719998, 0.0000000000, -6.6832803606, 5.0000000000, 0.7739177667
          82, -0.1484200092, 0.0028872698, 0.0000000000, 0.0000000000, 0.0000000000, -0.1106948826, 0.0080835093, -0.1482278393, 0.0000000000, -51.4049672655, -2.2660411435, 0.2366665293, 0.1953002918, 3.2205606637, 0.0000000000, -6.6761453854, 5.0000000000, 0.7834608833
          83, -0.1527018786, 0.0157328418, 0.0000000000, 0.0000000000, 0.0000000000, -0.1102869600, 0.0210711619, -0.1520572003, 0.0000000000, -9.7059311119, -2.2609492132, 0.2425739662, 0.2007672500, 3.2258019723, 0.0000000000, -6.6689032549, 5.0000000000, 0.7929666500
          84, -0.1566332666, 0.0283200979, 0.0000000000, 0.0000000000, 0.0000000000, -0.1096305163, 0.0337883824, -0.1555453418, 0.0000000000, -5.5308165665, -2.2558364783, 0.2484428235, 0.2062977016, 3.2310523790, 0.0000000000, -6.6616842357, 5.0000000000, 0.8025169333
          85, -0.1601977094, 0.0405750010, 0.0000000000, 0.0000000000, 0.0000000000, -0.1087179882, 0.0461606025, -0.1586784030, 0.0000000000, -3.9481874408, -2.2507348928, 0.2542845258, 0.2119104934, 3.2362722848, 0.0000000000, -6.6545531182, 5.0000000000, 0.8120288833
          86, -0.1633746430, 0.0524336146, 0.0000000000, 0.0000000000, 0.0000000000, -0.1075466486, 0.0581232047, -0.1614380717, 0.0000000000, -3.1158378855, -2.2455919994, 0.2600689330, 0.2175781575, 3.2415213980, 0.0000000000, -6.6474283297, 5.0000000000, 0.8215584500
          87, -0.1661305346, 0.0638343306, 0.0000000000, 0.0000000000, 0.0000000000, -0.1061128914, 0.0696134444, -0.1637929933, 0.0000000000, -2.6025264615, -2.2404514283, 0.2658121526, 0.2233015390, 3.2467445925, 0.0000000000, -6.6401836143, 5.0000000000, 0.8310790500
          88, -0.1684078539, 0.0747228932, 0.0000000000, 0.0000000000, 0.0000000000, -0.1044006610, 0.0805750841, -0.1656875729, 0.0000000000, -2.2537651676, -2.2352568171, 0.2714921580, 0.2290441594, 3.2520095949, 0.0000000000, -6.6328756431, 5.0000000000, 0.8406039667
          89, -0.1702103113, 0.0850514908, 0.0000000000, 0.0000000000, 0.0000000000, -0.1024339743, 0.0909604717, -0.1671271933, 0.0000000000, -2.0012619372, -2.2300612989, 0.2771242119, 0.2348211041, 3.2572521901, 0.0000000000, -6.6256093415, 5.0000000000, 0.8501383000
          90, -0.1715089072, 0.0947741016, 0.0000000000, 0.0000000000, 0.0000000000, -0.1002217287, 0.1007225978, -0.1680844843, 0.0000000000, -1.8096600687, -2.2248057636, 0.2826905524, 0.2406042889, 3.2625447665, 0.0000000000, -6.6183776925, 5.0000000000, 0.8596584667
          91, -0.1723057855, 0.1038512355, 0.0000000000, 0.0000000000, 0.0000000000, -0.0977906922, 0.1098220716, -0.1685629716, 0.0000000000, -1.6591597077, -2.2195504938, 0.2881919333, 0.2464041405, 3.2678125627, 0.0000000000, -6.6111591533, 5.0000000000, 0.8691733833
          92, -0.1726051481, 0.1122628470, 0.0000000000, 0.0000000000, 0.0000000000, -0.0951614130, 0.1182390073, -0.1685675566, 0.0000000000, -1.5375090934, -2.2142460185, 0.2936266648, 0.2521872933, 3.2731174971, 0.0000000000, -6.6039162287, 5.0000000000, 0.8787216333
          93, -0.1723373790, 0.1199768432, 0.0000000000, 0.0000000000, 0.0000000000, -0.0923214409, 0.1259388933, -0.1680297898, 0.0000000000, -1.4364220162, -2.2089494336, 0.2989904402, 0.2579614907, 3.2783910100, 0.0000000000, -6.5966379786, 5.0000000000, 0.8882424000
          94, -0.1714640255, 0.1269730984, 0.0000000000, 0.0000000000, 0.0000000000, -0.0892812295, 0.1329002697, -0.1669119471, 0.0000000000, -1.3503964826, -2.2036196769, 0.3042911519, 0.2637095347, 3.2836865195, 0.0000000000, -6.5893810706, 5.0000000000, 0.8977763333
          95, -0.1700162557, 0.1332388038, 0.0000000000, 0.0000000000, 0.0000000000, -0.0860698933, 0.1391114270, -0.1652456260, 0.0000000000, -1.2760265844, -2.1983131658, 0.3095162872, 0.2694360037, 3.2889381673, 0.0000000000, -6.5821271481, 5.0000000000, 0.9072972500
          96, -0.1679669417, 0.1387626231, 0.0000000000, 0.0000000000, 0.0000000000, -0.0827029794, 0.1445600859, -0.1630041124, 0.0000000000, -1.2104624289, -2.1929928025, 0.3146780688, 0.2751278227, 3.2941915190, 0.0000000000, -6.5749258111, 5.0000000000, 0.9167837500
          97, -0.1653261375, 0.1435400025, 0.0000000000, 0.0000000000, 0.0000000000, -0.0791957791, 0.1492420475, -0.1601976133, 0.0000000000, -1.1517774457, -2.1877183241, 0.3197567360, 0.2807867904, 3.2993781424, 0.0000000000, -6.5677524682, 5.0000000000, 0.9262999000
          98, -0.1620574977, 0.1475768668, 0.0000000000, 0.0000000000, 0.0000000000, -0.0755463583, 0.1531619600, -0.1567895985, 0.0000000000, -1.0981226344, -2.1824476471, 0.3247823338, 0.2864080528, 3.3045521667, 0.0000000000, -6.5605941498, 5.0000000000, 0.9358303833
          99, -0.1581717641, 0.1508779785, 0.0000000000, 0.0000000000, 0.0000000000, -0.0717639009, 0.1563249592, -0.1527906361, 0.0000000000, -1.0483422804, -2.1772434527, 0.3297044020, 0.2919913659, 3.3096389290, 0.0000000000, -6.5534185657, 5.0000000000, 0.9453712167
         100, -0.1536902462, 0.1534531213, 0.0000000000, 0.0000000000, 0.0000000000, -0.0678752367, 0.1587415691, -0.1482216800, 0.0000000000, -1.0015452597, -2.1720680095, 0.3345735045, 0.2975273921, 3.3146875807, 0.0000000000, -6.5462485403, 5.0000000000, 0.9549111667
         101, -0.1486461101, 0.1553140005, 0.0000000000, 0.0000000000, 0.0000000000, -0.0639011840, 0.1604246495, -0.1431154660, 0.0000000000, -0.9570683236, -2.1669709507, 0.3393283490, 0.3030156961, 3.3196379099, 0.0000000000, -6.5392126832, 5.0000000000, 0.9644569833
         102, -0.1430274598, 0.1564854369, 0.0000000000, 0.0000000000, 0.0000000000, -0.0598414286, 0.1613985892, -0.1374592362, 0.0000000000, -0.9139985330, -2.1619308605, 0.3440326207, 0.3084527593, 3.3245234705, 0.0000000000, -6.5321042599, 5.0000000000, 0.9739757833
         103, -0.1368708008, 0.1569961355, 0.0000000000, 0.0000000000, 0.0000000000, -0.0557199073, 0.1616933541, -0.1312884683, 0.0000000000, -0.8718099996, -2.1569637473, 0.3486200425, 0.3138418932, 3.3293237112, 0.0000000000, -6.5249652772, 5.0000000000, 0.9835384833
         104, -0.1301943050, 0.1568706722, 0.0000000000, 0.0000000000, 0.0000000000, -0.0515599756, 0.1613341415, -0.1246204624, 0.0000000000, -0.8299467532, -2.1520904743, 0.3531440469, 0.3191686046, 3.3340176070, 0.0000000000, -6.5178429352, 5.0000000000, 0.9930413667
         105, -0.1230031151, 0.1561439539, 0.0000000000, 0.0000000000, 0.0000000000, -0.0473652175, 0.1603560169, -0.1174591354, 0.0000000000, -0.7877545818, -2.1472786026, 0.3575573164, 0.3244326769, 3.3386414175, 0.0000000000, -6.5107939424, 5.0000000000, 1.0025640833
         106, -0.1153274678, 0.1548449299, 0.0000000000, 0.0000000000, 0.0000000000, -0.0431472089, 0.1587889710, -0.1098336916, 0.0000000000, -0.7447933092, -2.1425844830, 0.3618915881, 0.3296221803, 3.3431332170, 0.0000000000, -6.5037174927, 5.0000000000, 1.0120716167
         107, -0.1071718384, 0.1530172600, 0.0000000000, 0.0000000000, 0.0000000000, -0.0389016775, 0.1566767934, -0.1017470747, 0.0000000000, -0.7003905206, -2.1379493705, 0.3661339543, 0.3347474263, 3.3475629600, 0.0000000000, -6.4965044500, 5.0000000000, 1.0216157500
         108, -0.0985694683, 0.1506978482, 0.0000000000, 0.0000000000, 0.0000000000, -0.0346433600, 0.1540575297, -0.0932312131, 0.0000000000, -0.6540867670, -2.1334375344, 0.3702944198, 0.3397965185, 3.3518589864, 0.0000000000, -6.4892977835, 5.0000000000, 1.0311262000