TITLE = "Visualization of the surface solution"
VARIABLES = "x","y","Conservative_1","Conservative_2","Conservative_3","Conservative_4","Conservative_5","Pressure","Pressure_Coefficient","Mach", "Temperature", "Laminar_Viscosity", "Skin_Friction_Coefficient", "Heat_Flux", "Y_Plus", "Eddy_Viscosity", "Sharp_Edge_Dist"
ZONE NODES= 256, ELEMENTS= 256, DATAPACKING=POINT, ZONETYPE=FELINESEG
1.000000e+00	5.352203e-08	1.330275e+00	0.000000e+00	0.000000e+00	2.896345e+05	1.000000e-10	1.158538e+05	2.380709e-01	0.000000e+00	3.033886e+02	1.861906e-05	1.141354e-05	-3.029185e-04	2.956322e+01	1.355555e-28	0.000000e+00	
9.979658e-01	2.881795e-04	1.330417e+00	0.000000e+00	0.000000e+00	2.894306e+05	1.000000e-10	1.157722e+05	2.203480e-01	0.000000e+00	3.031427e+02	1.860749e-05	1.407468e-03	-6.966590e-03	2.787250e-01	1.358665e-28	2.054475e-03	
9.957821e-01	5.967887e-04	1.330015e+00	0.000000e+00	0.000000e+00	2.893300e+05	1.000000e-10	1.157320e+05	2.116066e-01	0.000000e+00	3.031290e+02	1.860684e-05	1.193210e-03	-5.866075e-03	2.558024e-01	1.357164e-28	4.259930e-03	
9.979658e-01	-2.881795e-04	1.329916e+00	0.000000e+00	0.000000e+00	2.895135e+05	1.000000e-10	1.158054e+05	2.275534e-01	0.000000e+00	3.033436e+02	1.861695e-05	1.698600e-03	-9.975720e-03	3.059847e-01	1.354555e-28	2.054490e-03	
9.934385e-01	9.270489e-04	1.329730e+00	0.000000e+00	0.000000e+00	2.892218e+05	1.000000e-10	1.156887e+05	2.022023e-01	0.000000e+00	3.030805e+02	1.860456e-05	1.043777e-03	-5.242114e-03	2.385569e-01	1.356502e-28	6.626694e-03	
9.957821e-01	-5.967887e-04	1.329454e+00	0.000000e+00	0.000000e+00	2.893993e+05	1.000000e-10	1.157597e+05	2.176264e-01	0.000000e+00	3.033294e+02	1.861628e-05	1.554718e-03	-8.565038e-03	2.917832e-01	1.352818e-28	4.259945e-03	
9.909241e-01	1.280290e-03	1.329349e+00	0.000000e+00	0.000000e+00	2.891134e+05	1.000000e-10	1.156454e+05	1.927840e-01	0.000000e+00	3.030537e+02	1.860330e-05	9.995556e-04	-5.140948e-03	2.327994e-01	1.355224e-28	9.165706e-03	
9.934385e-01	-9.270489e-04	1.329156e+00	0.000000e+00	0.000000e+00	2.892795e+05	1.000000e-10	1.157118e+05	2.072120e-01	0.000000e+00	3.032719e+02	1.861357e-05	1.402358e-03	-8.105524e-03	2.763207e-01	1.352194e-28	6.626709e-03	
9.882276e-01	1.657893e-03	1.328930e+00	0.000000e+00	0.000000e+00	2.890086e+05	1.000000e-10	1.156035e+05	1.836759e-01	0.000000e+00	3.030393e+02	1.860262e-05	1.024086e-03	-5.599017e-03	2.350175e-01	1.353666e-28	1.188851e-02	
9.909241e-01	-1.280290e-03	1.328758e+00	0.000000e+00	0.000000e+00	2.891639e+05	1.000000e-10	1.156656e+05	1.971699e-01	0.000000e+00	3.032413e+02	1.861213e-05	1.349820e-03	-8.216803e-03	2.703421e-01	1.350892e-28	9.165721e-03	
9.853369e-01	2.061293e-03	1.328501e+00	0.000000e+00	0.000000e+00	2.889074e+05	1.000000e-10	1.155630e+05	1.748803e-01	0.000000e+00	3.030311e+02	1.860223e-05	1.078065e-03	-6.360851e-03	2.405338e-01	1.352001e-28	1.480727e-02	
9.882276e-01	-1.657893e-03	1.328327e+00	0.000000e+00	0.000000e+00	2.890559e+05	1.000000e-10	1.156224e+05	1.877867e-01	0.000000e+00	3.032265e+02	1.861144e-05	1.373383e-03	-9.066060e-03	2.719715e-01	1.349290e-28	1.188853e-02	
9.822392e-01	2.491970e-03	1.328071e+00	0.000000e+00	0.000000e+00	2.888079e+05	1.000000e-10	1.155232e+05	1.662342e-01	0.000000e+00	3.030247e+02	1.860193e-05	1.138289e-03	-7.215304e-03	2.465875e-01	1.350319e-28	1.793479e-02	
9.853369e-01	-2.061293e-03	1.327895e+00	0.000000e+00	0.000000e+00	2.889552e+05	1.000000e-10	1.155821e+05	1.790303e-01	0.000000e+00	3.032195e+02	1.861111e-05	1.429515e-03	-1.027374e-02	2.767845e-01	1.347606e-28	1.480729e-02	
9.789211e-01	2.951446e-03	1.327643e+00	0.000000e+00	0.000000e+00	2.887086e+05	1.000000e-10	1.154834e+05	1.576022e-01	0.000000e+00	3.030182e+02	1.860163e-05	1.196865e-03	-8.098220e-03	2.523050e-01	1.348646e-28	2.128449e-02	
9.822392e-01	-2.491970e-03	1.327471e+00	0.000000e+00	0.000000e+00	2.888589e+05	1.000000e-10	1.155435e+05	1.706604e-01	0.000000e+00	3.032151e+02	1.861090e-05	1.491642e-03	-1.163236e-02	2.820783e-01	1.345933e-28	1.793480e-02	
9.753688e-01	3.441283e-03	1.327216e+00	0.000000e+00	0.000000e+00	2.886086e+05	1.000000e-10	1.154434e+05	1.489100e-01	0.000000e+00	3.030108e+02	1.860128e-05	1.253021e-03	-9.003805e-03	2.576347e-01	1.346984e-28	2.487043e-02	
9.789211e-01	-2.951446e-03	1.327060e+00	0.000000e+00	0.000000e+00	2.887651e+05	1.000000e-10	1.155060e+05	1.625096e-01	0.000000e+00	3.032107e+02	1.861069e-05	1.551137e-03	-1.305588e-02	2.870260e-01	1.344308e-28	2.128450e-02	
9.715675e-01	3.963073e-03	1.326787e+00	0.000000e+00	0.000000e+00	2.885076e+05	1.000000e-10	1.154030e+05	1.401332e-01	0.000000e+00	3.030026e+02	1.860089e-05	1.307542e-03	-9.944027e-03	2.626837e-01	1.345328e-28	2.870732e-02	
9.753688e-01	-3.441283e-03	1.326658e+00	0.000000e+00	0.000000e+00	2.886728e+05	1.000000e-10	1.154691e+05	1.544928e-01	0.000000e+00	3.032056e+02	1.861045e-05	1.607044e-03	-1.454578e-02	2.915636e-01	1.342735e-28	2.487045e-02	
9.675022e-01	4.518430e-03	1.326357e+00	0.000000e+00	0.000000e+00	2.884057e+05	1.000000e-10	1.153623e+05	1.312767e-01	0.000000e+00	3.029938e+02	1.860048e-05	1.360991e-03	-1.092895e-02	2.675271e-01	1.343674e-28	3.281044e-02	
9.715675e-01	-3.963073e-03	1.326266e+00	0.000000e+00	0.000000e+00	2.885819e+05	1.000000e-10	1.154327e+05	1.465870e-01	0.000000e+00	3.031998e+02	1.861018e-05	1.660037e-03	-1.610768e-02	2.957753e-01	1.341206e-28	2.870733e-02	
9.631568e-01	5.108981e-03	1.325925e+00	0.000000e+00	0.000000e+00	2.883030e+05	1.000000e-10	1.153212e+05	1.223554e-01	0.000000e+00	3.029845e+02	1.860004e-05	1.413731e-03	-1.196515e-02	2.722130e-01	1.342021e-28	3.719570e-02	
9.675022e-01	-4.518430e-03	1.325881e+00	0.000000e+00	0.000000e+00	2.884922e+05	1.000000e-10	1.153969e+05	1.387970e-01	0.000000e+00	3.031934e+02	1.860988e-05	1.710751e-03	-1.775831e-02	2.997341e-01	1.339716e-28	3.281045e-02	
9.585152e-01	5.736358e-03	1.325491e+00	0.000000e+00	0.000000e+00	2.881994e+05	1.000000e-10	1.152798e+05	1.133508e-01	0.000000e+00	3.029748e+02	1.859959e-05	1.465854e-03	-1.305724e-02	2.767597e-01	1.340364e-28	4.187955e-02	
9.631568e-01	-5.108981e-03	1.325504e+00	0.000000e+00	0.000000e+00	2.884039e+05	1.000000e-10	1.153616e+05	1.311232e-01	0.000000e+00	3.031868e+02	1.860957e-05	1.759757e-03	-1.951001e-02	3.035013e-01	1.338261e-28	3.719571e-02	
9.535602e-01	6.402178e-03	1.325055e+00	0.000000e+00	0.000000e+00	2.880950e+05	1.000000e-10	1.152380e+05	1.042733e-01	0.000000e+00	3.029648e+02	1.859911e-05	1.517465e-03	-1.420631e-02	2.811854e-01	1.338703e-28	4.687897e-02	
9.585152e-01	-5.736358e-03	1.325132e+00	0.000000e+00	0.000000e+00	2.883163e+05	1.000000e-10	1.153265e+05	1.235112e-01	0.000000e+00	3.031800e+02	1.860925e-05	1.807266e-03	-2.136899e-02	3.071033e-01	1.336826e-28	4.187957e-02	
9.482747e-01	7.108035e-03	1.324618e+00	0.000000e+00	0.000000e+00	2.879899e+05	1.000000e-10	1.151960e+05	9.514347e-02	0.000000e+00	3.029543e+02	1.859862e-05	1.568674e-03	-1.541308e-02	2.855067e-01	1.337041e-28	5.221141e-02	
9.535602e-01	-6.402178e-03	1.324763e+00	0.000000e+00	0.000000e+00	2.882295e+05	1.000000e-10	1.152918e+05	1.159674e-01	0.000000e+00	3.031730e+02	1.860891e-05	1.853664e-03	-2.334322e-02	3.105791e-01	1.335411e-28	4.687899e-02	
9.426407e-01	7.855481e-03	1.324178e+00	0.000000e+00	0.000000e+00	2.878840e+05	1.000000e-10	1.151536e+05	8.594049e-02	0.000000e+00	3.029435e+02	1.859811e-05	1.619343e-03	-1.667903e-02	2.897168e-01	1.335375e-28	5.789470e-02	
9.482747e-01	-7.108035e-03	1.324400e+00	0.000000e+00	0.000000e+00	2.881437e+05	1.000000e-10	1.152575e+05	1.085038e-01	0.000000e+00	3.031658e+02	1.860858e-05	1.898992e-03	-2.543465e-02	3.139378e-01	1.334020e-28	5.221142e-02	
9.366402e-01	8.646007e-03	1.323734e+00	0.000000e+00	0.000000e+00	2.877772e+05	1.000000e-10	1.151109e+05	7.665165e-02	0.000000e+00	3.029325e+02	1.859759e-05	1.669615e-03	-1.800793e-02	2.938339e-01	1.333701e-28	6.394699e-02	
9.426407e-01	-7.855481e-03	1.324040e+00	0.000000e+00	0.000000e+00	2.880582e+05	1.000000e-10	1.152233e+05	1.010777e-01	0.000000e+00	3.031584e+02	1.860823e-05	1.943289e-03	-2.765019e-02	3.171861e-01	1.332643e-28	5.789471e-02	
9.302548e-01	9.481022e-03	1.323287e+00	0.000000e+00	0.000000e+00	2.876691e+05	1.000000e-10	1.150676e+05	6.726194e-02	0.000000e+00	3.029210e+02	1.859705e-05	1.719555e-03	-1.940116e-02	2.978677e-01	1.332015e-28	7.038666e-02	
9.366402e-01	-8.646007e-03	1.323681e+00	0.000000e+00	0.000000e+00	2.879730e+05	1.000000e-10	1.151892e+05	9.366990e-02	0.000000e+00	3.031508e+02	1.860787e-05	1.986769e-03	-2.999837e-02	3.203453e-01	1.331275e-28	6.394700e-02	
9.234661e-01	1.036183e-02	1.322835e+00	0.000000e+00	0.000000e+00	2.875597e+05	1.000000e-10	1.150239e+05	5.775302e-02	0.000000e+00	3.029093e+02	1.859650e-05	1.768976e-03	-2.085510e-02	3.018060e-01	1.330314e-28	7.723219e-02	
9.302548e-01	-9.481022e-03	1.323323e+00	0.000000e+00	0.000000e+00	2.878877e+05	1.000000e-10	1.151551e+05	8.625938e-02	0.000000e+00	3.031431e+02	1.860751e-05	2.029525e-03	-3.248321e-02	3.234253e-01	1.329913e-28	7.038668e-02	
9.162555e-01	1.128962e-02	1.322377e+00	0.000000e+00	0.000000e+00	2.874487e+05	1.000000e-10	1.149795e+05	4.810967e-02	0.000000e+00	3.028974e+02	1.859594e-05	1.817921e-03	-2.237130e-02	3.056566e-01	1.328593e-28	8.450203e-02	
9.234661e-01	-1.036183e-02	1.322964e+00	0.000000e+00	0.000000e+00	2.878022e+05	1.000000e-10	1.151209e+05	7.882668e-02	0.000000e+00	3.031353e+02	1.860714e-05	2.071273e-03	-3.510432e-02	3.264061e-01	1.328550e-28	7.723221e-02	
9.086049e-01	1.226540e-02	1.321912e+00	0.000000e+00	0.000000e+00	2.873361e+05	1.000000e-10	1.149344e+05	3.832205e-02	0.000000e+00	3.028851e+02	1.859536e-05	1.866537e-03	-2.394782e-02	3.094350e-01	1.326850e-28	9.221444e-02	
9.162555e-01	-1.128962e-02	1.322604e+00	0.000000e+00	0.000000e+00	2.877163e+05	1.000000e-10	1.150865e+05	7.136677e-02	0.000000e+00	3.031273e+02	1.860676e-05	2.112339e-03	-3.786736e-02	3.293156e-01	1.327186e-28	8.450204e-02	
9.004963e-01	1.329003e-02	1.321441e+00	0.000000e+00	0.000000e+00	2.872218e+05	1.000000e-10	1.148887e+05	2.838695e-02	0.000000e+00	3.028726e+02	1.859477e-05	1.914524e-03	-2.557697e-02	3.131193e-01	1.325085e-28	1.003873e-01	
9.086049e-01	-1.226540e-02	1.322243e+00	0.000000e+00	0.000000e+00	2.876301e+05	1.000000e-10	1.150521e+05	6.387360e-02	0.000000e+00	3.031191e+02	1.860638e-05	2.152743e-03	-4.077350e-02	3.321575e-01	1.325820e-28	9.221445e-02	
8.919122e-01	1.436413e-02	1.320962e+00	0.000000e+00	0.000000e+00	2.871057e+05	1.000000e-10	1.148423e+05	1.829756e-02	0.000000e+00	3.028598e+02	1.859417e-05	1.961977e-03	-2.725135e-02	3.167213e-01	1.323295e-28	1.090381e-01	
9.004963e-01	-1.329003e-02	1.321881e+00	0.000000e+00	0.000000e+00	2.875436e+05	1.000000e-10	1.150174e+05	5.635416e-02	0.000000e+00	3.031109e+02	1.860599e-05	2.192064e-03	-4.381235e-02	3.349010e-01	1.324452e-28	1.003873e-01	
8.828360e-01	1.548810e-02	1.320477e+00	0.000000e+00	0.000000e+00	2.869879e+05	1.000000e-10	1.147952e+05	8.060875e-03	0.000000e+00	3.028468e+02	1.859356e-05	2.009002e-03	-2.896255e-02	3.202515e-01	1.321482e-28	1.181832e-01	
8.919122e-01	-1.436413e-02	1.321518e+00	0.000000e+00	0.000000e+00	2.874568e+05	1.000000e-10	1.149827e+05	4.880764e-02	0.000000e+00	3.031026e+02	1.860560e-05	2.230836e-03	-4.699375e-02	3.375890e-01	1.323081e-28	1.090381e-01	
8.732520e-01	1.666204e-02	1.319985e+00	0.000000e+00	0.000000e+00	2.868684e+05	1.000000e-10	1.147474e+05	-2.322818e-03	0.000000e+00	3.028336e+02	1.859294e-05	2.055435e-03	-3.070737e-02	3.237002e-01	1.319645e-28	1.278384e-01	
8.828360e-01	-1.548810e-02	1.321154e+00	0.000000e+00	0.000000e+00	2.873697e+05	1.000000e-10	1.149479e+05	4.123689e-02	0.000000e+00	3.030942e+02	1.860521e-05	2.268572e-03	-5.029777e-02	3.401861e-01	1.321709e-28	1.181832e-01	
8.631457e-01	1.788578e-02	1.319486e+00	0.000000e+00	0.000000e+00	2.867473e+05	1.000000e-10	1.146989e+05	-1.284881e-02	0.000000e+00	3.028202e+02	1.859230e-05	2.101396e-03	-3.246846e-02	3.270793e-01	1.317785e-28	1.380181e-01	
8.732520e-01	-1.666204e-02	1.320790e+00	0.000000e+00	0.000000e+00	2.872824e+05	1.000000e-10	1.149129e+05	3.365083e-02	0.000000e+00	3.030857e+02	1.860481e-05	2.305765e-03	-5.373153e-02	3.427311e-01	1.320336e-28	1.278385e-01	
8.525041e-01	1.915879e-02	1.318980e+00	0.000000e+00	0.000000e+00	2.866246e+05	1.000000e-10	1.146498e+05	-2.351462e-02	0.000000e+00	3.028067e+02	1.859167e-05	2.146950e-03	-3.425011e-02	3.303949e-01	1.315901e-28	1.487350e-01	
8.631457e-01	-1.788578e-02	1.320425e+00	0.000000e+00	0.000000e+00	2.871949e+05	1.000000e-10	1.148780e+05	2.604961e-02	0.000000e+00	3.030772e+02	1.860441e-05	2.342075e-03	-5.726883e-02	3.452000e-01	1.318964e-28	1.380181e-01	
8.413160e-01	2.048016e-02	1.318468e+00	0.000000e+00	0.000000e+00	2.865003e+05	1.000000e-10	1.146001e+05	-3.432062e-02	0.000000e+00	3.027930e+02	1.859102e-05	2.192072e-03	-3.602608e-02	3.336484e-01	1.313994e-28	1.600001e-01	
8.525041e-01	-1.915879e-02	1.320060e+00	0.000000e+00	0.000000e+00	2.871073e+05	1.000000e-10	1.148429e+05	1.843967e-02	0.000000e+00	3.030686e+02	1.860400e-05	2.377998e-03	-6.091668e-02	3.476304e-01	1.317590e-28	1.487350e-01	
8.295722e-01	2.184859e-02	1.317948e+00	0.000000e+00	0.000000e+00	2.863743e+05	1.000000e-10	1.145497e+05	-4.526867e-02	0.000000e+00	3.027792e+02	1.859037e-05	2.236961e-03	-3.780104e-02	3.368558e-01	1.312060e-28	1.718226e-01	
8.413160e-01	-2.048016e-02	1.319694e+00	0.000000e+00	0.000000e+00	2.870197e+05	1.000000e-10	1.148079e+05	1.082095e-02	0.000000e+00	3.030600e+02	1.860360e-05	2.413168e-03	-6.466341e-02	3.499965e-01	1.316218e-28	1.600002e-01	
8.172658e-01	2.326236e-02	1.317421e+00	0.000000e+00	0.000000e+00	2.862466e+05	1.000000e-10	1.144987e+05	-5.636198e-02	0.000000e+00	3.027654e+02	1.858972e-05	2.281503e-03	-3.956667e-02	3.400094e-01	1.310101e-28	1.842089e-01	
8.295722e-01	-2.184859e-02	1.319329e+00	0.000000e+00	0.000000e+00	2.869320e+05	1.000000e-10	1.147728e+05	3.198453e-03	0.000000e+00	3.030514e+02	1.860319e-05	2.447971e-03	-6.848951e-02	3.523271e-01	1.314844e-28	1.718226e-01	
8.043927e-01	2.471926e-02	1.316886e+00	0.000000e+00	0.000000e+00	2.861172e+05	1.000000e-10	1.144469e+05	-6.760646e-02	0.000000e+00	3.027515e+02	1.858907e-05	2.325998e-03	-4.130440e-02	3.431337e-01	1.308112e-28	1.971630e-01	
8.172658e-01	-2.326236e-02	1.318962e+00	0.000000e+00	0.000000e+00	2.868442e+05	1.000000e-10	1.147377e+05	-4.426988e-03	0.000000e+00	3.030429e+02	1.860279e-05	2.482410e-03	-7.240252e-02	3.546222e-01	1.313471e-28	1.842089e-01	
7.909518e-01	2.621660e-02	1.316342e+00	0.000000e+00	0.000000e+00	2.859860e+05	1.000000e-10	1.143944e+05	-7.901016e-02	0.000000e+00	3.027376e+02	1.858841e-05	2.370478e-03	-4.302236e-02	3.462307e-01	1.306092e-28	2.106857e-01	
8.043927e-01	-2.471926e-02	1.318596e+00	0.000000e+00	0.000000e+00	2.867564e+05	1.000000e-10	1.147026e+05	-1.205713e-02	0.000000e+00	3.030343e+02	1.860239e-05	2.516540e-03	-7.636339e-02	3.568874e-01	1.312096e-28	1.971630e-01	
7.769449e-01	2.775117e-02	1.315790e+00	0.000000e+00	0.000000e+00	2.858529e+05	1.000000e-10	1.143411e+05	-9.058279e-02	0.000000e+00	3.027237e+02	1.858776e-05	2.415067e-03	-4.470006e-02	3.493101e-01	1.304037e-28	2.247747e-01	
7.909518e-01	-2.621660e-02	1.318228e+00	0.000000e+00	0.000000e+00	2.866686e+05	1.000000e-10	1.146674e+05	-1.969266e-02	0.000000e+00	3.030259e+02	1.860199e-05	2.550559e-03	-8.038900e-02	3.591360e-01	1.310718e-28	2.106857e-01	
7.623778e-01	2.931924e-02	1.315227e+00	0.000000e+00	0.000000e+00	2.857176e+05	1.000000e-10	1.142870e+05	-1.023371e-01	0.000000e+00	3.027099e+02	1.858711e-05	2.459919e-03	-4.634571e-02	3.523830e-01	1.301945e-28	2.394242e-01	
7.769449e-01	-2.775117e-02	1.317860e+00	0.000000e+00	0.000000e+00	2.865806e+05	1.000000e-10	1.146322e+05	-2.733799e-02	0.000000e+00	3.030176e+02	1.860160e-05	2.584453e-03	-8.444951e-02	3.613674e-01	1.309337e-28	2.247747e-01	
7.472594e-01	3.091649e-02	1.314654e+00	0.000000e+00	0.000000e+00	2.855802e+05	1.000000e-10	1.142321e+05	-1.142831e-01	0.000000e+00	3.026962e+02	1.858646e-05	2.505198e-03	-4.795026e-02	3.554613e-01	1.299812e-28	2.546245e-01	
7.623778e-01	-2.931924e-02	1.317490e+00	0.000000e+00	0.000000e+00	2.864925e+05	1.000000e-10	1.145970e+05	-3.499516e-02	0.000000e+00	3.030094e+02	1.860121e-05	2.618428e-03	-8.854657e-02	3.635957e-01	1.307949e-28	2.394242e-01	
7.316032e-01	3.253806e-02	1.314069e+00	0.000000e+00	0.000000e+00	2.854402e+05	1.000000e-10	1.141761e+05	-1.264470e-01	0.000000e+00	3.026826e+02	1.858582e-05	2.551067e-03	-4.952124e-02	3.585555e-01	1.297634e-28	2.703620e-01	
7.472594e-01	-3.091649e-02	1.317119e+00	0.000000e+00	0.000000e+00	2.864042e+05	1.000000e-10	1.145617e+05	-4.267105e-02	0.000000e+00	3.030014e+02	1.860084e-05	2.652592e-03	-9.265315e-02	3.658286e-01	1.306556e-28	2.546245e-01	
7.154262e-01	3.417852e-02	1.313471e+00	0.000000e+00	0.000000e+00	2.852977e+05	1.000000e-10	1.141191e+05	-1.388345e-01	0.000000e+00	3.026692e+02	1.858519e-05	2.597710e-03	-5.106330e-02	3.616776e-01	1.295406e-28	2.866190e-01	
7.316032e-01	-3.253806e-02	1.316746e+00	0.000000e+00	0.000000e+00	2.863156e+05	1.000000e-10	1.145262e+05	-5.036664e-02	0.000000e+00	3.029935e+02	1.860047e-05	2.687052e-03	-9.677580e-02	3.680727e-01	1.305153e-28	2.703620e-01	
6.987499e-01	3.583186e-02	1.312860e+00	0.000000e+00	0.000000e+00	2.851526e+05	1.000000e-10	1.140610e+05	-1.514452e-01	0.000000e+00	3.026560e+02	1.858457e-05	2.645303e-03	-5.258148e-02	3.648389e-01	1.293127e-28	3.033736e-01	
7.154262e-01	-3.417852e-02	1.316371e+00	0.000000e+00	0.000000e+00	2.862269e+05	1.000000e-10	1.144907e+05	-5.807991e-02	0.000000e+00	3.029859e+02	1.860011e-05	2.721934e-03	-1.008958e-01	3.703356e-01	1.303742e-28	2.866190e-01	
6.816001e-01	3.749149e-02	1.312236e+00	0.000000e+00	0.000000e+00	2.850052e+05	1.000000e-10	1.140021e+05	-1.642552e-01	0.000000e+00	3.026432e+02	1.858397e-05	2.693874e-03	-5.408763e-02	3.680402e-01	1.290798e-28	3.205996e-01	
6.987499e-01	-3.583186e-02	1.315994e+00	0.000000e+00	0.000000e+00	2.861380e+05	1.000000e-10	1.144552e+05	-6.579914e-02	0.000000e+00	3.029787e+02	1.859977e-05	2.757318e-03	-1.050098e-01	3.726229e-01	1.302321e-28	3.033736e-01	
6.640066e-01	3.915032e-02	1.311598e+00	0.000000e+00	0.000000e+00	2.848547e+05	1.000000e-10	1.139419e+05	-1.773315e-01	0.000000e+00	3.026308e+02	1.858338e-05	2.743556e-03	-5.560672e-02	3.712886e-01	1.288409e-28	3.382667e-01	
6.816001e-01	-3.749149e-02	1.315614e+00	0.000000e+00	0.000000e+00	2.860488e+05	1.000000e-10	1.144195e+05	-7.355152e-02	0.000000e+00	3.029717e+02	1.859944e-05	2.793360e-03	-1.091196e-01	3.749446e-01	1.300887e-28	3.205996e-01	
6.460033e-01	4.080073e-02	1.310943e+00	0.000000e+00	0.000000e+00	2.847011e+05	1.000000e-10	1.138804e+05	-1.906823e-01	0.000000e+00	3.026187e+02	1.858281e-05	2.794636e-03	-5.716510e-02	3.746015e-01	1.285955e-28	3.563402e-01	
6.640066e-01	-3.915032e-02	1.315231e+00	0.000000e+00	0.000000e+00	2.859593e+05	1.000000e-10	1.143837e+05	-8.133657e-02	0.000000e+00	3.029650e+02	1.859912e-05	2.830270e-03	-1.132231e-01	3.773126e-01	1.299438e-28	3.382667e-01	
6.276283e-01	4.243463e-02	1.310270e+00	0.000000e+00	0.000000e+00	2.845441e+05	1.000000e-10	1.138176e+05	-2.043232e-01	0.000000e+00	3.026071e+02	1.858227e-05	2.847330e-03	-5.879255e-02	3.779914e-01	1.283431e-28	3.747818e-01	
6.460033e-01	-4.080073e-02	1.314844e+00	0.000000e+00	0.000000e+00	2.858693e+05	1.000000e-10	1.143477e+05	-8.915456e-02	0.000000e+00	3.029588e+02	1.859883e-05	2.868239e-03	-1.173236e-01	3.797394e-01	1.297972e-28	3.563402e-01	
6.089231e-01	4.404353e-02	1.309578e+00	0.000000e+00	0.000000e+00	2.843834e+05	1.000000e-10	1.137534e+05	-2.182877e-01	0.000000e+00	3.025960e+02	1.858174e-05	2.901916e-03	-6.052276e-02	3.814741e-01	1.280830e-28	3.935492e-01	
6.276283e-01	-4.243463e-02	1.314454e+00	0.000000e+00	0.000000e+00	2.857790e+05	1.000000e-10	1.143116e+05	-9.699831e-02	0.000000e+00	3.029530e+02	1.859856e-05	2.907317e-03	-1.214140e-01	3.822266e-01	1.296491e-28	3.747818e-01	
5.899328e-01	4.561861e-02	1.308870e+00	0.000000e+00	0.000000e+00	2.842200e+05	1.000000e-10	1.136880e+05	-2.324922e-01	0.000000e+00	3.025857e+02	1.858126e-05	2.958412e-03	-6.239369e-02	3.850477e-01	1.278163e-28	4.125969e-01	
6.089231e-01	-4.404353e-02	1.314061e+00	0.000000e+00	0.000000e+00	2.856884e+05	1.000000e-10	1.142754e+05	-1.048745e-01	0.000000e+00	3.029476e+02	1.859830e-05	2.947692e-03	-1.254995e-01	3.847855e-01	1.294991e-28	3.935492e-01	
5.707054e-01	4.715081e-02	1.308144e+00	0.000000e+00	0.000000e+00	2.840534e+05	1.000000e-10	1.136214e+05	-2.469702e-01	0.000000e+00	3.025762e+02	1.858081e-05	3.016744e-03	-6.443500e-02	3.887045e-01	1.275423e-28	4.318762e-01	
5.899328e-01	-4.561861e-02	1.313666e+00	0.000000e+00	0.000000e+00	2.855981e+05	1.000000e-10	1.142392e+05	-1.127258e-01	0.000000e+00	3.029429e+02	1.859808e-05	2.989309e-03	-1.295785e-01	3.874107e-01	1.293480e-28	4.125969e-01	
5.512916e-01	4.863091e-02	1.307398e+00	0.000000e+00	0.000000e+00	2.838832e+05	1.000000e-10	1.135533e+05	-2.617649e-01	0.000000e+00	3.025673e+02	1.858039e-05	3.077030e-03	-6.665490e-02	3.924499e-01	1.272602e-28	4.513360e-01	
5.707054e-01	-4.715081e-02	1.313268e+00	0.000000e+00	0.000000e+00	2.855077e+05	1.000000e-10	1.142031e+05	-1.205773e-01	0.000000e+00	3.029388e+02	1.859789e-05	3.032194e-03	-1.336767e-01	3.901024e-01	1.291955e-28	4.318762e-01	
5.317439e-01	5.004967e-02	1.306631e+00	0.000000e+00	0.000000e+00	2.837091e+05	1.000000e-10	1.134836e+05	-2.768907e-01	0.000000e+00	3.025593e+02	1.858001e-05	3.139609e-03	-6.914685e-02	3.963018e-01	1.269697e-28	4.709232e-01	
5.512916e-01	-4.863091e-02	1.312868e+00	0.000000e+00	0.000000e+00	2.854175e+05	1.000000e-10	1.141670e+05	-1.284209e-01	0.000000e+00	3.029353e+02	1.859772e-05	3.076460e-03	-1.378206e-01	3.928669e-01	1.290417e-28	4.513360e-01	
5.121166e-01	5.139795e-02	1.305848e+00	0.000000e+00	0.000000e+00	2.835326e+05	1.000000e-10	1.134130e+05	-2.922299e-01	0.000000e+00	3.025524e+02	1.857969e-05	3.204459e-03	-7.198335e-02	4.002557e-01	1.266721e-28	4.905833e-01	
5.317439e-01	-5.004967e-02	1.312467e+00	0.000000e+00	0.000000e+00	2.853275e+05	1.000000e-10	1.141310e+05	-1.362391e-01	0.000000e+00	3.029324e+02	1.859759e-05	3.122227e-03	-1.420260e-01	3.957102e-01	1.288867e-28	4.709232e-01	
4.924646e-01	5.266684e-02	1.305046e+00	0.000000e+00	0.000000e+00	2.833530e+05	1.000000e-10	1.133412e+05	-3.078370e-01	0.000000e+00	3.025466e+02	1.857941e-05	3.271399e-03	-7.518858e-02	4.042972e-01	1.263669e-28	5.102607e-01	
5.121166e-01	-5.139795e-02	1.312066e+00	0.000000e+00	0.000000e+00	2.852386e+05	1.000000e-10	1.140954e+05	-1.439711e-01	0.000000e+00	3.029304e+02	1.859749e-05	3.169443e-03	-1.462809e-01	3.986272e-01	1.287316e-28	4.905833e-01	
4.728433e-01	5.384781e-02	1.304225e+00	0.000000e+00	0.000000e+00	2.831702e+05	1.000000e-10	1.132681e+05	-3.237304e-01	0.000000e+00	3.025418e+02	1.857919e-05	3.340623e-03	-7.883041e-02	4.084356e-01	1.260537e-28	5.298998e-01	
4.924646e-01	-5.266684e-02	1.311668e+00	0.000000e+00	0.000000e+00	2.851507e+05	1.000000e-10	1.140603e+05	-1.516081e-01	0.000000e+00	3.029290e+02	1.859743e-05	3.218004e-03	-1.505862e-01	4.016108e-01	1.285765e-28	5.102607e-01	
4.533078e-01	5.493285e-02	1.303388e+00	0.000000e+00	0.000000e+00	2.829850e+05	1.000000e-10	1.131940e+05	-3.398194e-01	0.000000e+00	3.025381e+02	1.857901e-05	3.412211e-03	-8.293495e-02	4.126733e-01	1.257339e-28	5.494452e-01	
4.728433e-01	-5.384781e-02	1.311272e+00	0.000000e+00	0.000000e+00	2.850640e+05	1.000000e-10	1.140256e+05	-1.591381e-01	0.000000e+00	3.029285e+02	1.859740e-05	3.267934e-03	-1.548912e-01	4.046607e-01	1.284219e-28	5.298998e-01	
4.339121e-01	5.591460e-02	1.302537e+00	0.000000e+00	0.000000e+00	2.827981e+05	1.000000e-10	1.131192e+05	-3.560671e-01	0.000000e+00	3.025358e+02	1.857891e-05	3.485958e-03	-8.749488e-02	4.169942e-01	1.254080e-28	5.688427e-01	
4.533078e-01	-5.493285e-02	1.310881e+00	0.000000e+00	0.000000e+00	2.849793e+05	1.000000e-10	1.139917e+05	-1.665002e-01	0.000000e+00	3.029287e+02	1.859741e-05	3.319225e-03	-1.592578e-01	4.077757e-01	1.282688e-28	5.494452e-01	
4.147089e-01	5.678649e-02	1.301670e+00	0.000000e+00	0.000000e+00	2.826087e+05	1.000000e-10	1.130435e+05	-3.725270e-01	0.000000e+00	3.025346e+02	1.857885e-05	3.561932e-03	-9.240868e-02	4.214007e-01	1.250756e-28	5.880394e-01	
4.339121e-01	-5.591460e-02	1.310499e+00	0.000000e+00	0.000000e+00	2.848973e+05	1.000000e-10	1.139589e+05	-1.736300e-01	0.000000e+00	3.029297e+02	1.859746e-05	3.371708e-03	-1.636305e-01	4.109449e-01	1.281183e-28	5.688427e-01	
3.957488e-01	5.754285e-02	1.300792e+00	0.000000e+00	0.000000e+00	2.824183e+05	1.000000e-10	1.129673e+05	-3.890688e-01	0.000000e+00	3.025348e+02	1.857886e-05	3.640103e-03	-9.784910e-02	4.258885e-01	1.247385e-28	6.069849e-01	
4.147089e-01	-5.678649e-02	1.310127e+00	0.000000e+00	0.000000e+00	2.848181e+05	1.000000e-10	1.139272e+05	-1.805153e-01	0.000000e+00	3.029315e+02	1.859755e-05	3.425295e-03	-1.679843e-01	4.141623e-01	1.279710e-28	5.880395e-01	
3.770798e-01	5.817904e-02	1.299904e+00	0.000000e+00	0.000000e+00	2.822269e+05	1.000000e-10	1.128907e+05	-4.057091e-01	0.000000e+00	3.025363e+02	1.857893e-05	3.720261e-03	-1.037407e-01	4.304434e-01	1.243967e-28	6.256312e-01	
3.957488e-01	-5.754285e-02	1.309768e+00	0.000000e+00	0.000000e+00	2.847425e+05	1.000000e-10	1.138970e+05	-1.870862e-01	0.000000e+00	3.029342e+02	1.859767e-05	3.479909e-03	-1.722638e-01	4.174231e-01	1.278282e-28	6.069849e-01	
3.587470e-01	5.869148e-02	1.299006e+00	0.000000e+00	0.000000e+00	2.820344e+05	1.000000e-10	1.128138e+05	-4.224341e-01	0.000000e+00	3.025390e+02	1.857906e-05	3.802494e-03	-1.101057e-01	4.350685e-01	1.240506e-28	6.439333e-01	
3.770798e-01	-5.817904e-02	1.309424e+00	0.000000e+00	0.000000e+00	2.846712e+05	1.000000e-10	1.138685e+05	-1.932819e-01	0.000000e+00	3.029377e+02	1.859784e-05	3.535337e-03	-1.764252e-01	4.207145e-01	1.276908e-28	6.256312e-01	
3.407920e-01	5.907774e-02	1.298101e+00	0.000000e+00	0.000000e+00	2.818420e+05	1.000000e-10	1.127368e+05	-4.391566e-01	0.000000e+00	3.025434e+02	1.857926e-05	3.886815e-03	-1.168797e-01	4.397633e-01	1.237012e-28	6.618499e-01	
3.587470e-01	-5.869148e-02	1.309098e+00	0.000000e+00	0.000000e+00	2.846043e+05	1.000000e-10	1.138417e+05	-1.990927e-01	0.000000e+00	3.029420e+02	1.859804e-05	3.591492e-03	-1.804308e-01	4.240312e-01	1.275594e-28	6.439333e-01	
3.232528e-01	5.933656e-02	1.297184e+00	0.000000e+00	0.000000e+00	2.816484e+05	1.000000e-10	1.126594e+05	-4.559824e-01	0.000000e+00	3.025492e+02	1.857953e-05	3.973499e-03	-1.240739e-01	4.445401e-01	1.233468e-28	6.793435e-01	
3.407920e-01	-5.907774e-02	1.308791e+00	0.000000e+00	0.000000e+00	2.845426e+05	1.000000e-10	1.138170e+05	-2.044585e-01	0.000000e+00	3.029474e+02	1.859829e-05	3.648346e-03	-1.842618e-01	4.273723e-01	1.274347e-28	6.618500e-01	
3.061635e-01	5.946785e-02	1.296256e+00	0.000000e+00	0.000000e+00	2.814539e+05	1.000000e-10	1.125815e+05	-4.728885e-01	0.000000e+00	3.025567e+02	1.857989e-05	4.062898e-03	-1.317274e-01	4.494167e-01	1.229872e-28	6.963803e-01	
3.232528e-01	-5.933656e-02	1.308502e+00	0.000000e+00	0.000000e+00	2.844857e+05	1.000000e-10	1.137943e+05	-2.094024e-01	0.000000e+00	3.029537e+02	1.859859e-05	3.706011e-03	-1.879271e-01	4.307441e-01	1.273161e-28	6.793435e-01	
2.895540e-01	5.947265e-02	1.295318e+00	0.000000e+00	0.000000e+00	2.812582e+05	1.000000e-10	1.125033e+05	-4.898929e-01	0.000000e+00	3.025654e+02	1.858030e-05	4.155763e-03	-1.398402e-01	4.544317e-01	1.226233e-28	7.129309e-01	
3.061635e-01	-5.946785e-02	1.308230e+00	0.000000e+00	0.000000e+00	2.844333e+05	1.000000e-10	1.137733e+05	-2.139576e-01	0.000000e+00	3.029610e+02	1.859893e-05	3.764787e-03	-1.914594e-01	4.341633e-01	1.272030e-28	6.963803e-01	
2.734501e-01	5.935312e-02	1.294391e+00	0.000000e+00	0.000000e+00	2.810658e+05	1.000000e-10	1.124263e+05	-5.066121e-01	0.000000e+00	3.025748e+02	1.858074e-05	4.251042e-03	-1.481194e-01	4.595289e-01	1.222640e-28	7.289702e-01	
2.895540e-01	-5.947265e-02	1.307980e+00	0.000000e+00	0.000000e+00	2.843864e+05	1.000000e-10	1.137545e+05	-2.180337e-01	0.000000e+00	3.029689e+02	1.859931e-05	3.825006e-03	-1.948322e-01	4.376508e-01	1.270981e-28	7.129309e-01	
2.578733e-01	5.911242e-02	1.293489e+00	0.000000e+00	0.000000e+00	2.808794e+05	1.000000e-10	1.123517e+05	-5.228168e-01	0.000000e+00	3.025850e+02	1.858122e-05	4.346827e-03	-1.562380e-01	4.646071e-01	1.219140e-28	7.444772e-01	
2.734501e-01	-5.935312e-02	1.307768e+00	0.000000e+00	0.000000e+00	2.843481e+05	1.000000e-10	1.137392e+05	-2.213596e-01	0.000000e+00	3.029772e+02	1.859970e-05	3.885768e-03	-1.978080e-01	4.411572e-01	1.270078e-28	7.289702e-01	
2.428411e-01	5.875465e-02	1.292608e+00	0.000000e+00	0.000000e+00	2.806984e+05	1.000000e-10	1.122793e+05	-5.385472e-01	0.000000e+00	3.025961e+02	1.858174e-05	4.442993e-03	-1.641446e-01	4.696608e-01	1.215721e-28	7.594352e-01	
2.578733e-01	-5.911242e-02	1.307609e+00	0.000000e+00	0.000000e+00	2.843215e+05	1.000000e-10	1.137286e+05	-2.236688e-01	0.000000e+00	3.029858e+02	1.860010e-05	3.945358e-03	-2.001483e-01	4.445899e-01	1.269375e-28	7.444772e-01	
2.283666e-01	5.828472e-02	1.291742e+00	0.000000e+00	0.000000e+00	2.805212e+05	1.000000e-10	1.122085e+05	-5.539431e-01	0.000000e+00	3.026079e+02	1.858230e-05	4.540002e-03	-1.718360e-01	4.747155e-01	1.212357e-28	7.738315e-01	
2.428411e-01	-5.875465e-02	1.307500e+00	0.000000e+00	0.000000e+00	2.843066e+05	1.000000e-10	1.137226e+05	-2.249686e-01	0.000000e+00	3.029951e+02	1.860054e-05	4.003538e-03	-2.019488e-01	4.479370e-01	1.268865e-28	7.594352e-01	
2.144593e-01	5.770827e-02	1.290890e+00	0.000000e+00	0.000000e+00	2.803477e+05	1.000000e-10	1.121391e+05	-5.690243e-01	0.000000e+00	3.026203e+02	1.858289e-05	4.638235e-03	-1.792855e-01	4.797925e-01	1.209047e-28	7.876576e-01	
2.283666e-01	-5.828472e-02	1.307435e+00	0.000000e+00	0.000000e+00	2.843019e+05	1.000000e-10	1.137207e+05	-2.253775e-01	0.000000e+00	3.030052e+02	1.860101e-05	4.060643e-03	-2.032611e-01	4.512196e-01	1.268513e-28	7.738315e-01	
2.011248e-01	5.703151e-02	1.290051e+00	0.000000e+00	0.000000e+00	2.801775e+05	1.000000e-10	1.120710e+05	-5.838110e-01	0.000000e+00	3.026332e+02	1.858349e-05	4.737897e-03	-1.864444e-01	4.849030e-01	1.205790e-28	8.009083e-01	
2.144593e-01	-5.770827e-02	1.307413e+00	0.000000e+00	0.000000e+00	2.843076e+05	1.000000e-10	1.137230e+05	-2.248797e-01	0.000000e+00	3.030162e+02	1.860154e-05	4.116554e-03	-2.039749e-01	4.544331e-01	1.268324e-28	7.876576e-01	