TITLE = "SU2 Simulation"
VARIABLES = "Iteration","CLift","CDrag","CSideForce","CMx","CMy","CMz","CFx","CFy","CFz","CL/CD","Res_Flow[0]","Res_Flow[1]","Res_Flow[2]","Res_Flow[3]","Res_Flow[4]","Res_Turb[0]","Linear_Solver_Iterations","Time(min)"
ZONE T= "Convergence history"
           0, 4.6370103663, 26.3379478826, 0.0000000000, 0.0000000000, 0.0000000000, 1.2133463684, 26.3094922452, 4.7958296054, 0.0000000000, 0.1760581495, -2.1189950103, -8.4120769302, -8.4005599386, 3.3601683088, 0.0000000000, -8.2835549457, 3.0000000000, 0.0080000000
           1, 4.3683166458, 23.3286504294, 0.0000000000, 0.0000000000, 0.0000000000, 1.2051696277, 23.3018706605, 4.5089849074, 0.0000000000, 0.1872511511, -2.3770700182, -0.2114229433, 0.2720492100, 3.1024650102, 0.0000000000, -8.3047520115, 4.0000000000, 0.0168333333
           2, 3.8408558993, 20.3734901525, 0.0000000000, 0.0000000000, 0.0000000000, 1.0266395258, 20.3499464751, 3.9637045165, 0.0000000000, 0.1885222350, -2.5939973420, -0.6232738034, -0.1642025404, 2.8852769599, 0.0000000000, -8.3748237555, 4.0000000000, 0.0256666667
           3, 3.4948672565, 18.5918383495, 0.0000000000, 0.0000000000, 0.0000000000, 0.9136497478, 18.5704145373, 3.6069730059, 0.0000000000, 0.1879785738, -2.7231343947, -0.7321643833, -0.2709391567, 2.7560924300, 0.0000000000, -8.4379789457, 4.0000000000, 0.0345000000
           4, 3.3524304830, 17.9897723415, 0.0000000000, 0.0000000000, 0.0000000000, 0.8722357967, 17.9692188449, 3.4609064052, 0.0000000000, 0.1863520238, -2.8141851914, -0.7706989845, -0.3095228646, 2.6650281004, 0.0000000000, -8.4951054701, 4.0000000000, 0.0433333333
           5, 3.3095989776, 17.8359524601, 0.0000000000, 0.0000000000, 0.0000000000, 0.8651604898, 17.8156601766, 3.4171476443, 0.0000000000, 0.1855577371, -2.8621598538, -0.7947856922, -0.3523396521, 2.6170314921, 0.0000000000, -8.5470144156, 5.0000000000, 0.0525000000
           6, 3.2946012377, 17.6993337087, 0.0000000000, 0.0000000000, 0.0000000000, 0.8646212241, 17.6791343969, 3.4013259213, 0.0000000000, 0.1861426702, -2.8909977109, -0.7982844844, -0.3721409254, 2.5881810092, 0.0000000000, -8.5942700522, 5.0000000000, 0.0616666667
           7, 3.2818586127, 17.5042863735, 0.0000000000, 0.0000000000, 0.0000000000, 0.8613114833, 17.4841674912, 3.3874067572, 0.0000000000, 0.1874888552, -2.9058980120, -0.7888013812, -0.3810243308, 2.5732759324, 0.0000000000, -8.6373690468, 5.0000000000, 0.0710000000
           8, 3.2709432478, 17.2880287100, 0.0000000000, 0.0000000000, 0.0000000000, 0.8572516348, 17.2679796189, 3.3751868527, 0.0000000000, 0.1892027890, -2.9120714157, -0.7677937721, -0.3814419260, 2.5671004374, 0.0000000000, -8.6767902686, 5.0000000000, 0.0803333333
           9, 3.2642356662, 17.0621564261, 0.0000000000, 0.0000000000, 0.0000000000, 0.8549583133, 17.0421519144, 3.3671166475, 0.0000000000, 0.1913143676, -2.9125528535, -0.7349732777, -0.3747535573, 2.5666164540, 0.0000000000, -8.7129749100, 5.0000000000, 0.0895000000
          10, 3.2606065805, 16.8117418981, 0.0000000000, 0.0000000000, 0.0000000000, 0.8541894310, 16.7917638393, 3.3619768124, 0.0000000000, 0.1939481703, -2.9087986349, -0.6918726042, -0.3627532420, 2.5703633867, 0.0000000000, -8.7463116688, 5.0000000000, 0.0986666667
          11, 3.2573376933, 16.5234161685, 0.0000000000, 0.0000000000, 0.0000000000, 0.8535603784, 16.5034630794, 3.3569684412, 0.0000000000, 0.1971346397, -2.9025009085, -0.6411257448, -0.3472539476, 2.5766469300, 0.0000000000, -8.7771360310, 5.0000000000, 0.1081666667
          12, 3.2528100837, 16.1944464407, 0.0000000000, 0.0000000000, 0.0000000000, 0.8522905356, 16.1745266551, 3.3504561547, 0.0000000000, 0.2008596031, -2.8951570276, -0.5861645236, -0.3301239019, 2.5839696565, 0.0000000000, -8.8057383731, 5.0000000000, 0.1173333333
          13, 3.2467539391, 15.8260721249, 0.0000000000, 0.0000000000, 0.0000000000, 0.8504586638, 15.8061955821, 3.3421776230, 0.0000000000, 0.2051522269, -2.8879079865, -0.5303699239, -0.3129713342, 2.5911910267, 0.0000000000, -8.8321899219, 5.0000000000, 0.1265000000
          14, 3.2392635101, 15.4190173415, 0.0000000000, 0.0000000000, 0.0000000000, 0.8483416600, 15.3991933989, 3.3322314639, 0.0000000000, 0.2100823573, -2.8814358800, -0.4764602306, -0.2970029479, 2.5976299172, 0.0000000000, -8.8569370713, 5.0000000000, 0.1356666667
          15, 3.2300279083, 14.9735731285, 0.0000000000, 0.0000000000, 0.0000000000, 0.8459050424, 14.9538130138, 3.3203085503, 0.0000000000, 0.2157152391, -2.8759671245, -0.4262569542, -0.2829199291, 2.6030614992, 0.0000000000, -8.8801617905, 5.0000000000, 0.1450000000
          16, 3.2183137142, 14.4905519230, 0.0000000000, 0.0000000000, 0.0000000000, 0.8428205231, 14.4708712742, 3.3056803779, 0.0000000000, 0.2220973867, -2.8713672308, -0.3807452622, -0.2709354745, 2.6076224065, 0.0000000000, -8.9020216015, 5.0000000000, 0.1543333333
          17, 3.2035757082, 13.9713116855, 0.0000000000, 0.0000000000, 0.0000000000, 0.8389183645, 13.9517294052, 3.2878099299, 0.0000000000, 0.2292967032, -2.8672657301, -0.3402684252, -0.2608749855, 2.6116854173, 0.0000000000, -8.9226538886, 5.0000000000, 0.1633333333
          18, 3.1853768788, 13.4173545398, 0.0000000000, 0.0000000000, 0.0000000000, 0.8340704932, 13.3978921399, 3.2662692653, 0.0000000000, 0.2374072228, -2.8631775933, -0.3047365734, -0.2523170467, 2.6157376889, 0.0000000000, -8.9421787558, 5.0000000000, 0.1726666667
          19, 3.1634653717, 12.8301023652, 0.0000000000, 0.0000000000, 0.0000000000, 0.8282811246, 12.8107828512, 3.2408151131, 0.0000000000, 0.2465658715, -2.8586044262, -0.2738041404, -0.2447428014, 2.6202794076, 0.0000000000, -8.9607017283, 5.0000000000, 0.1821666667
          20, 3.1375542114, 12.2109351590, 0.0000000000, 0.0000000000, 0.0000000000, 0.8215365538, 12.1917832428, 3.2111688289, 0.0000000000, 0.2569462675, -2.8531085039, -0.2470041807, -0.2376695677, 2.6257496360, 0.0000000000, -8.9783153851, 5.0000000000, 0.1913333333
          21, 3.1065483212, 11.5613398631, 0.0000000000, 0.0000000000, 0.0000000000, 0.8132093980, 11.5423868363, 3.1762443271, 0.0000000000, 0.2687014099, -2.8463706815, -0.2238374373, -0.2307400620, 2.6324684848, 0.0000000000, -8.9951011678, 5.0000000000, 0.2005000000
          22, 3.0701280330, 10.8827659096, 0.0000000000, 0.0000000000, 0.0000000000, 0.8032423041, 10.8640449659, 3.1357306900, 0.0000000000, 0.2821091677, -2.8382179096, -0.2038298831, -0.2237597266, 2.6406096455, 0.0000000000, -9.0111318316, 5.0000000000, 0.2098333333
          23, 3.0279228344, 10.1760514387, 0.0000000000, 0.0000000000, 0.0000000000, 0.7915247370, 10.1575979923, 3.0892624688, 0.0000000000, 0.2975538059, -2.8286142422, -0.1865605017, -0.2166869858, 2.6502094154, 0.0000000000, -9.0264782378, 5.0000000000, 0.2190000000
          24, 2.9806711753, 9.4411966601, 0.0000000000, 0.0000000000, 0.0000000000, 0.7786940722, 9.4230416697, 3.0375781013, 0.0000000000, 0.3157090444, -2.8176167856, -0.1716736490, -0.2096221721, 2.6612108271, 0.0000000000, -9.0412416425, 5.0000000000, 0.2281666667
          25, 2.9284974707, 8.6790542600, 0.0000000000, 0.0000000000, 0.0000000000, 0.7648933979, 8.6612279182, 2.9808071446, 0.0000000000, 0.3374212654, -2.8053167147, -0.1588828698, -0.2027499036, 2.6735225043, 0.0000000000, -9.0556676618, 5.0000000000, 0.2375000000
          26, 2.8710442244, 7.8917841144, 0.0000000000, 0.0000000000, 0.0000000000, 0.7499184218, 7.8743187314, 2.9186051400, 0.0000000000, 0.3638016680, -2.7917946566, -0.1479671086, -0.1963189509, 2.6870632462, 0.0000000000, -9.0703851521, 5.0000000000, 0.2466666667
          27, 2.8076016637, 7.0821096290, 0.0000000000, 0.0000000000, 0.0000000000, 0.7332485990, 7.0650417476, 2.8502787590, 0.0000000000, 0.3964357813, -2.7771101769, -0.1387656441, -0.1906096666, 2.7017723754, 0.0000000000, -9.0864443592, 5.0000000000, 0.2560000000
          28, 2.7384914328, 6.2532601246, 0.0000000000, 0.0000000000, 0.0000000000, 0.7151580787, 6.2366242884, 2.7761691230, 0.0000000000, 0.4379301961, -2.7613321987, -0.1311610981, -0.1858671373, 2.7175792915, 0.0000000000, -9.1042208754, 5.0000000000, 0.2653333333
          29, 2.6643718668, 5.4085299610, 0.0000000000, 0.0000000000, 0.0000000000, 0.6960909292, 5.3923566815, 2.6969544310, 0.0000000000, 0.4926240376, -2.7445771131, -0.1250603289, -0.1823070989, 2.7343654827, 0.0000000000, -9.1223311907, 5.0000000000, 0.2745000000
          30, 2.5862964126, 4.5505610253, 0.0000000000, 0.0000000000, 0.0000000000, 0.6767579152, 4.5348744105, 2.6137040499, 0.0000000000, 0.5683467155, -2.7270498942, -0.1203803435, -0.1800387147, 2.7519237351, 0.0000000000, -9.1391656161, 5.0000000000, 0.2836666667
          31, 2.5028268288, 3.6822823564, 0.0000000000, 0.0000000000, 0.0000000000, 0.6560401752, 3.6671151380, 2.5249974360, 0.0000000000, 0.6796944358, -2.7090321970, -0.1170304318, -0.1790873440, 2.7699703517, 0.0000000000, -9.1541931689, 5.0000000000, 0.2930000000
          32, 2.4132579929, 2.8070068845, 0.0000000000, 0.0000000000, 0.0000000000, 0.6333435730, 2.7923959882, 2.4301494676, 0.0000000000, 0.8597264247, -2.6908856421, -0.1149018120, -0.1793236017, 2.7881421701, 0.0000000000, -9.1675703701, 5.0000000000, 0.3021666667
          33, 2.3180046681, 1.9283970467, 0.0000000000, 0.0000000000, 0.0000000000, 0.6089177033, 1.9143768292, 2.3295969967, 0.0000000000, 1.2020370349, -2.6729760494, -0.1138595261, -0.1805278149, 2.8060724977, 0.0000000000, -9.1796235547, 5.0000000000, 0.3113333333
          34, 2.2181164999, 1.0502002527, 0.0000000000, 0.0000000000, 0.0000000000, 0.5834945602, 1.0367986698, 2.2244122587, 0.0000000000, 2.1120890936, -2.6556750292, -0.1137312713, -0.1822942289, 2.8233894575, 0.0000000000, -9.1906487690, 5.0000000000, 0.3206666667
          35, 2.1134642449, 0.1762385038, 0.0000000000, 0.0000000000, 0.0000000000, 0.5569208830, 0.1634842212, 2.1144890717, 0.0000000000, 11.9920687020, -2.6392757174, -0.1143036619, -0.1841524011, 2.8398001442, 0.0000000000, -9.2008724521, 5.0000000000, 0.3298333333
          36, 2.0041902994, -0.6895700857, 0.0000000000, 0.0000000000, 0.0000000000, 0.5292631229, -0.7016493325, 1.9999934684, 0.0000000000, -2.9064345175, -2.6240033748, -0.1153104031, -0.1855117546, 2.8550798726, 0.0000000000, -9.2104596151, 5.0000000000, 0.3390000000
          37, 1.8898292552, -1.5430618328, 0.0000000000, 0.0000000000, 0.0000000000, 0.5001298552, -1.5544355761, 1.8804851697, 0.0000000000, -1.2247268483, -2.6100199939, -0.1164222041, -0.1857542305, 2.8690673477, 0.0000000000, -9.2195293268, 5.0000000000, 0.3483333333
          38, 1.7711066982, -2.3802062976, 0.0000000000, 0.0000000000, 0.0000000000, 0.4699599003, -2.3908485208, 1.7567140650, 0.0000000000, -0.7440979801, -2.5973780348, -0.1172540912, -0.1843219300, 2.8817108860, 0.0000000000, -9.2281679454, 5.0000000000, 0.3575000000
          39, 1.6484885071, -3.1969438312, 0.0000000000, 0.0000000000, 0.0000000000, 0.4390755344, -3.2068314024, 1.6291705173, 0.0000000000, -0.5156451268, -2.5860677058, -0.1173755462, -0.1807672933, 2.8930210671, 0.0000000000, -9.2364384494, 5.0000000000, 0.3668333333
          40, 1.5222359954, -3.9891967866, 0.0000000000, 0.0000000000, 0.0000000000, 0.4075632980, -3.9983082246, 1.4981404370, 0.0000000000, -0.3815895973, -2.5760270339, -0.1163502673, -0.1748606279, 2.9030605324, 0.0000000000, -9.2443870318, 5.0000000000, 0.3760000000
          41, 1.3924707325, -4.7530383138, 0.0000000000, 0.0000000000, 0.0000000000, 0.3754160011, -4.7613529423, 1.3637690829, 0.0000000000, -0.2929643400, -2.5671196606, -0.1137930569, -0.1666532399, 2.9119663015, 0.0000000000, -9.2520471954, 5.0000000000, 0.3853333333
          42, 1.2592823350, -5.4846689217, 0.0000000000, 0.0000000000, 0.0000000000, 0.3425550533, -5.4921666744, 1.2261689933, 0.0000000000, -0.2296004286, -2.5591897513, -0.1094267600, -0.1564115971, 2.9198947395, 0.0000000000, -9.2594430338, 5.0000000000, 0.3945000000
          43, 1.1231896448, -6.1804671813, 0.0000000000, 0.0000000000, 0.0000000000, 0.3092071075, -6.1871311880, 1.0858808495, 0.0000000000, -0.1817321590, -2.5520543124, -0.1031569650, -0.1446000550, 2.9270292739, 0.0000000000, -9.2665914133, 5.0000000000, 0.4036666667
          44, 0.9844381744, -6.8366685745, 0.0000000000, 0.0000000000, 0.0000000000, 0.2753879425, -6.8424835148, 0.9431728722, 0.0000000000, -0.1439938420, -2.5455308228, -0.0950546196, -0.1317828878, 2.9335527399, 0.0000000000, -9.2735047739, 5.0000000000, 0.4128333333
          45, 0.8434780686, -7.4497407138, 0.0000000000, 0.0000000000, 0.0000000000, 0.2411939576, -7.4546940473, 0.7985165096, 0.0000000000, -0.1132224732, -2.5394564559, -0.0853770075, -0.1185047186, 2.9396281609, 0.0000000000, -9.2801915480, 5.0000000000, 0.4221666667
          46, 0.7009498690, -8.0158292056, 0.0000000000, 0.0000000000, 0.0000000000, 0.2067738488, -8.0199123267, 0.6525755461, 0.0000000000, -0.0874457091, -2.5337031717, -0.0745015932, -0.1052436589, 2.9453836189, 0.0000000000, -9.2866586361, 5.0000000000, 0.4313333333
          47, 0.5570481328, -8.5317550421, 0.0000000000, 0.0000000000, 0.0000000000, 0.1720871108, -8.5349605770, 0.5055637153, 0.0000000000, -0.0652911541, -2.5281590076, -0.0628970804, -0.0923827961, 2.9509310225, 0.0000000000, -9.2929109933, 5.0000000000, 0.4406666667
          48, 0.4137289541, -8.9938131990, 0.0000000000, 0.0000000000, 0.0000000000, 0.1381452753, -8.9961456427, 0.3594594290, 0.0000000000, -0.0460015063, -2.5227687142, -0.0510172848, -0.0801726526, 2.9563253941, 0.0000000000, -9.2989558240, 5.0000000000, 0.4498333333
          49, 0.2706000721, -9.3988017619, 0.0000000000, 0.0000000000, 0.0000000000, 0.1044753991, -9.4002633012, 0.2138897515, 0.0000000000, -0.0287909118, -2.5174892606, -0.0392587297, -0.0687541862, 2.9616095258, 0.0000000000, -9.3047969849, 5.0000000000, 0.4591666667
          50, 0.1275447079, -9.7443897570, 0.0000000000, 0.0000000000, 0.0000000000, 0.0706580233, -9.7449819166, 0.0687519694, 0.0000000000, -0.0130890401, -2.5122884208, -0.0279689581, -0.0581922002, 2.9668153585, 0.0000000000, -9.3104414294, 5.0000000000, 0.4683333333
          51, -0.0149492003, -10.0281848103, 0.0000000000, 0.0000000000, 0.0000000000, 0.0367441914, -10.0279121023, -0.0754515541, 0.0000000000, 0.0014907185, -2.5071312694, -0.0174019493, -0.0484745065, 2.9719775464, 0.0000000000, -9.3158955019, 5.0000000000, 0.4776666667
          52, -0.1566854803, -10.2479729168, 0.0000000000, 0.0000000000, 0.0000000000, 0.0026282699, -10.2468410770, -0.2185112928, 0.0000000000, 0.0152894120, -2.5019843687, -0.0077269229, -0.0395525027, 2.9771292779, 0.0000000000, -9.3211671697, 5.0000000000, 0.4868333333
          53, -0.2966032265, -10.4018802273, 0.0000000000, 0.0000000000, 0.0000000000, -0.0313640366, -10.3999014266, -0.3593550550, 0.0000000000, 0.0285143859, -2.4968061459, 0.0009609952, -0.0313628446, 2.9823119385, 0.0000000000, -9.3262645071, 5.0000000000, 0.4961666667
          54, -0.4337807914, -10.4891229470, 0.0000000000, 0.0000000000, 0.0000000000, -0.0649320399, -10.4863149307, -0.4970564811, 0.0000000000, 0.0413552967, -2.4915367135, 0.0086330878, -0.0238259657, 2.9875853308, 0.0000000000, -9.3311961117, 5.0000000000, 0.5055000000
          55, -0.5679202897, -10.5091161221, 0.0000000000, 0.0000000000, 0.0000000000, -0.0981457271, -10.5054984437, -0.6313141620, 0.0000000000, 0.0540407284, -2.4861243542, 0.0153112375, -0.0168706785, 2.9930011097, 0.0000000000, -9.3359723536, 5.0000000000, 0.5146666667
          56, -0.6988799323, -10.4618627017, 0.0000000000, 0.0000000000, 0.0000000000, -0.1311726665, -10.4574557701, -0.7619863290, 0.0000000000, 0.0668026290, -2.4805220292, 0.0210581602, -0.0104319024, 2.9986063515, 0.0000000000, -9.3406018252, 5.0000000000, 0.5240000000
          57, -0.8264456008, -10.3477931906, 0.0000000000, 0.0000000000, 0.0000000000, -0.1640926939, -10.3426186985, -0.8888614650, 0.0000000000, 0.0798668456, -2.4746880468, 0.0259696334, -0.0044479657, 3.0044428512, 0.0000000000, -9.3450959736, 5.0000000000, 0.5331666667
          58, -0.9499885204, -10.1676675206, 0.0000000000, 0.0000000000, 0.0000000000, -0.1966545335, -10.1617509405, -1.0113153914, 0.0000000000, 0.0934322959, -2.4686010553, 0.0301479926, 0.0011272076, 3.0105320790, 0.0000000000, -9.3494713126, 5.0000000000, 0.5425000000
          59, -1.0690533691, -9.9229546783, 0.0000000000, 0.0000000000, 0.0000000000, -0.2287067553, -9.9163242031, -1.1289016574, 0.0000000000, 0.1077353877, -2.4622533613, 0.0337218764, 0.0063374928, 3.0168819081, 0.0000000000, -9.3537429597, 5.0000000000, 0.5518333333
          60, -1.1837325516, -9.6157470078, 0.0000000000, 0.0000000000, 0.0000000000, -0.2604762719, -9.6084302348, -1.2417252896, 0.0000000000, 0.1231035457, -2.4556569860, 0.0368455769, 0.0112323500, 3.0234804709, 0.0000000000, -9.3579263970, 5.0000000000, 0.5610000000
          61, -1.2937020378, -9.2485546870, 0.0000000000, 0.0000000000, 0.0000000000, -0.2918398125, -9.2405811228, -1.3494774083, 0.0000000000, 0.1398815363, -2.4488493891, 0.0396491328, 0.0158522759, 3.0302904040, 0.0000000000, -9.3620374667, 5.0000000000, 0.5703333333
          62, -1.3984807161, -8.8245088599, 0.0000000000, 0.0000000000, 0.0000000000, -0.3225287014, -8.8159108566, -1.4516958018, 0.0000000000, 0.1584768896, -2.4418757944, 0.0422707528, 0.0202437170, 3.0372665914, 0.0000000000, -9.3660885905, 4.0000000000, 0.5790000000
          63, -1.4981577717, -8.3474925770, 0.0000000000, 0.0000000000, 0.0000000000, -0.3526557313, -8.3383018781, -1.5484930810, 0.0000000000, 0.1794739867, -2.4347754260, 0.0448179069, 0.0244537743, 3.0443699299, 0.0000000000, -9.3700864291, 4.0000000000, 0.5878333333
          64, -1.5920005041, -7.8219061784, 0.0000000000, 0.0000000000, 0.0000000000, -0.3817179766, -7.8121588679, -1.6391631070, 0.0000000000, 0.2035310150, -2.4276002013, 0.0474311516, 0.0285355382, 3.0515485370, 0.0000000000, -9.3740399013, 4.0000000000, 0.5965000000
          65, -1.6802201090, -7.2524199073, 0.0000000000, 0.0000000000, 0.0000000000, -0.4098980355, -7.2421507100, -1.7239452487, 0.0000000000, 0.2316771685, -2.4204073903, 0.0501959719, 0.0325472784, 3.0587451205, 0.0000000000, -9.3779569834, 4.0000000000, 0.6053333333
          66, -1.7624350654, -6.6440612403, 0.0000000000, 0.0000000000, 0.0000000000, -0.4369120253, -6.6333070912, -1.8024883240, 0.0000000000, 0.2652647231, -2.4132458407, 0.0531905078, 0.0365476287, 3.0659108217, 0.0000000000, -9.3818437164, 4.0000000000, 0.6141666667
          67, -1.8388872081, -6.0022532512, 0.0000000000, 0.0000000000, 0.0000000000, -0.4628881547, -5.9910495277, -1.8750668821, 0.0000000000, 0.3063661480, -2.4061429338, 0.0564746928, 0.0405913830, 3.0730182792, 0.0000000000, -9.3857038065, 4.0000000000, 0.6228333333
          68, -1.9094600711, -5.3324934700, 0.0000000000, 0.0000000000, 0.0000000000, -0.4877049767, -5.3208761520, -1.9415976271, 0.0000000000, 0.3580801518, -2.3991343461, 0.0600920343, 0.0447387245, 3.0800317523, 0.0000000000, -9.3895401071, 4.0000000000, 0.6316666667
          69, -1.9740522002, -4.6405202445, 0.0000000000, 0.0000000000, 0.0000000000, -0.5112444045, -4.6285258196, -2.0020137277, 0.0000000000, 0.4253945886, -2.3922556313, 0.0640539928, 0.0490433103, 3.0869156111, 0.0000000000, -9.3933521088, 4.0000000000, 0.6405000000
          70, -2.0324838868, -3.9322687723, 0.0000000000, 0.0000000000, 0.0000000000, -0.5333219315, -3.9199347043, -2.0561712870, 0.0000000000, 0.5168730838, -2.3855124067, 0.0683637095, 0.0535500660, 3.0936642317, 0.0000000000, -9.3971404405, 4.0000000000, 0.6491666667
          71, -2.0844461692, -3.2137779685, 0.0000000000, 0.0000000000, 0.0000000000, -0.5536211953, -3.2011434754, -2.1037977833, 0.0000000000, 0.6485968196, -2.3789111949, 0.0730144194, 0.0582990536, 3.1002710701, 0.0000000000, -9.4009035650, 4.0000000000, 0.6578333333
          72, -2.1308601688, -2.4909778485, 0.0000000000, 0.0000000000, 0.0000000000, -0.5726481403, -2.4780764829, -2.1458500985, 0.0000000000, 0.8554311995, -2.3724689415, 0.0779731392, 0.0633190876, 3.1067190990, 0.0000000000, -9.4046379481, 4.0000000000, 0.6668333333
          73, -2.1717480057, -1.7690638451, 0.0000000000, 0.0000000000, 0.0000000000, -0.5904330087, -1.7559289317, -2.1823816978, 0.0000000000, 1.2276255669, -2.3661785421, 0.0832135113, 0.0686251802, 3.1130154360, 0.0000000000, -9.4083393526, 4.0000000000, 0.6755000000
          74, -2.2071985396, -1.0528816201, 0.0000000000, 0.0000000000, 0.0000000000, -0.6069876552, -1.0395458591, -2.2135106745, 0.0000000000, 2.0963406499, -2.3600270564, 0.0886982626, 0.0742206973, 3.1191730463, 0.0000000000, -9.4120003169, 4.0000000000, 0.6841666667
          75, -2.2358295376, -0.3476542381, 0.0000000000, 0.0000000000, 0.0000000000, -0.6214169690, -0.3341585743, -2.2378863327, 0.0000000000, 6.4311873487, -2.3540190134, 0.0943845474, 0.0800967629, 3.1251873587, 0.0000000000, -9.4156124055, 4.0000000000, 0.6930000000
          76, -2.2569381335, 0.3410611026, 0.0000000000, 0.0000000000, 0.0000000000, -0.6332503720, 0.3546715852, -2.2548393470, 0.0000000000, -6.6174011523, -2.3481392526, 0.1002372769, 0.0862270949, 3.1310735497, 0.0000000000, -9.4191714380, 4.0000000000, 0.7016666667
          77, -2.2704765316, 1.0081400325, 0.0000000000, 0.0000000000, 0.0000000000, -0.6424731433, 1.0218200547, -2.2643528395, 0.0000000000, -2.2521440063, -2.3423683557, 0.1062139737, 0.0925774722, 3.1368510815, 0.0000000000, -9.4226697429, 4.0000000000, 0.7105000000
          78, -2.2776495536, 1.6490658870, 0.0000000000, 0.0000000000, 0.0000000000, -0.6498948606, 1.6627775209, -2.2676588599, 0.0000000000, -1.3811755925, -2.3367048942, 0.1122770717, 0.0991047679, 3.1425213789, 0.0000000000, -9.4261010358, 4.0000000000, 0.7191666667
          79, -2.2779561040, 2.2597860565, 0.0000000000, 0.0000000000, 0.0000000000, -0.6551989877, 2.2734884246, -2.2642807723, 0.0000000000, -1.0080406052, -2.3311324589, 0.1183934671, 0.1057545980, 3.1481008902, 0.0000000000, -9.4294597930, 4.0000000000, 0.7280000000
          80, -2.2713529666, 2.8366742395, 0.0000000000, 0.0000000000, 0.0000000000, -0.6583470270, 2.8503262697, -2.2541972399, 0.0000000000, -0.8007098365, -2.3256305998, 0.1245243619, 0.1124657754, 3.1536101325, 0.0000000000, -9.4327446442, 4.0000000000, 0.7368333333
          81, -2.2575541641, 3.3763833958, 0.0000000000, 0.0000000000, 0.0000000000, -0.6591652979, 3.3899423514, -2.2371424840, 0.0000000000, -0.6686308690, -2.3201967027, 0.1306405317, 0.1191798933, 3.1590517179, 0.0000000000, -9.4359507165, 4.0000000000, 0.7455000000
          82, -2.2366760302, 3.8756669685, 0.0000000000, 0.0000000000, 0.0000000000, -0.6577375449, 3.8890908738, -2.2132524235, 0.0000000000, -0.5771073852, -2.3148180393, 0.1367077878, 0.1258305262, 3.1644383987, 0.0000000000, -9.4390785429, 5.0000000000, 0.7550000000
          83, -2.2088637950, 4.3319751265, 0.0000000000, 0.0000000000, 0.0000000000, -0.6541243893, 4.3452229285, -2.1826876697, 0.0000000000, -0.5098976173, -2.3094842717, 0.1426934174, 0.1323591850, 3.1697805343, 0.0000000000, -9.4421268150, 5.0000000000, 0.7641666667
          84, -2.1740782383, 4.7432875608, 0.0000000000, 0.0000000000, 0.0000000000, -0.6481764068, 4.7563180065, -2.1454211920, 0.0000000000, -0.4583483945, -2.3041908775, 0.1485731003, 0.1387105169, 3.1750826414, 0.0000000000, -9.4450929819, 5.0000000000, 0.7735000000
          85, -2.1326311003, 5.1079703081, 0.0000000000, 0.0000000000, 0.0000000000, -0.6400949557, 5.1207440552, -2.1017745833, 0.0000000000, -0.4175104732, -2.2989281692, 0.1543183672, 0.1448317672, 3.1803543944, 0.0000000000, -9.4479755821, 5.0000000000, 0.7828333333
          86, -2.0846264089, 5.4247687582, 0.0000000000, 0.0000000000, 0.0000000000, -0.6299505275, 5.4372471148, -2.0518594388, 0.0000000000, -0.3842793125, -2.2936954087, 0.1599123259, 0.1506780050, 3.1855964601, 0.0000000000, -9.4507738072, 5.0000000000, 0.7920000000
          87, -2.0301424430, 5.6929165678, 0.0000000000, 0.0000000000, 0.0000000000, -0.6177609349, 5.7050613283, -1.9957586596, 0.0000000000, -0.3566085009, -2.2884916253, 0.1653486888, 0.1562178697, 3.1908097173, 0.0000000000, -9.4534857614, 5.0000000000, 0.8013333333
          88, -1.9690763963, 5.9120446865, 0.0000000000, 0.0000000000, 0.0000000000, -0.6033554864, 5.9238170315, -1.9333716678, 0.0000000000, -0.3330618256, -2.2833146551, 0.1706304501, 0.1614272103, 3.1959961965, 0.0000000000, -9.4561106193, 5.0000000000, 0.8106666667
          89, -1.9022816865, 6.0820120466, 0.0000000000, 0.0000000000, 0.0000000000, -0.5871020132, 6.0933783085, -1.8655527168, 0.0000000000, -0.3127717722, -2.2781685565, 0.1757776881, 0.1662899143, 3.2011516427, 0.0000000000, -9.4586467285, 5.0000000000, 0.8200000000
          90, -1.8295349825, 6.2032033901, 0.0000000000, 0.0000000000, 0.0000000000, -0.5687516180, 6.2141285467, -1.7920761582, 0.0000000000, -0.2949339023, -2.2730544682, 0.1808281941, 0.1708117640, 3.2062747081, 0.0000000000, -9.4610937911, 5.0000000000, 0.8291666667
          91, -1.7508318979, 6.2764592671, 0.0000000000, 0.0000000000, 0.0000000000, -0.5482108156, 6.2869082544, -1.7129325344, 0.0000000000, -0.2789521645, -2.2679734972, 0.1858330280, 0.1750058404, 3.2113640298, 0.0000000000, -9.4634520304, 5.0000000000, 0.8385000000
          92, -1.6668631863, 6.3025182212, 0.0000000000, 0.0000000000, 0.0000000000, -0.5258757396, 6.3124601293, -1.6288081306, 0.0000000000, -0.2644757425, -2.2629317146, 0.1908598627, 0.1788957070, 3.2164132553, 0.0000000000, -9.4657233684, 5.0000000000, 0.8476666667
          93, -1.5779600785, 6.2824724345, 0.0000000000, 0.0000000000, 0.0000000000, -0.5018001901, 6.2918783320, -1.5400275824, 0.0000000000, -0.2511686434, -2.2579325225, 0.1959852968, 0.1825302042, 3.2214187348, 0.0000000000, -9.4679081934, 5.0000000000, 0.8571666667
          94, -1.4842983236, 6.2179247373, 0.0000000000, 0.0000000000, 0.0000000000, -0.4759322393, 6.2267667241, -1.4467569650, 0.0000000000, -0.2387128160, -2.2529812129, 0.2012816216, 0.1859571158, 3.2263749254, 0.0000000000, -9.4700128784, 5.0000000000, 0.8663333333
          95, -1.3866949546, 6.1107823636, 0.0000000000, 0.0000000000, 0.0000000000, -0.4486845156, 6.1190374341, -1.3498017900, 0.0000000000, -0.2269259273, -2.2480924918, 0.2068119031, 0.1892406847, 3.2312669364, 0.0000000000, -9.4720383926, 5.0000000000, 0.8756666667
          96, -1.2852868184, 5.9629570805, 0.0000000000, 0.0000000000, 0.0000000000, -0.4200099004, 5.9706030200, -1.2492873675, 0.0000000000, -0.2155452070, -2.2432751510, 0.2126217947, 0.1924567903, 3.2360858973, 0.0000000000, -9.4739899848, 5.0000000000, 0.8848333333
          97, -1.1804551855, 5.7766272313, 0.0000000000, 0.0000000000, 0.0000000000, -0.3900202806, 5.7836440858, -1.1455818187, 0.0000000000, -0.2043502442, -2.2385466756, 0.2187183944, 0.1956590092, 3.2408143051, 0.0000000000, -9.4758819163, 5.0000000000, 0.8943333333
          98, -1.0720533862, 5.5540547570, 0.0000000000, 0.0000000000, 0.0000000000, -0.3584621126, 5.5604216464, -1.0385248294, 0.0000000000, -0.1930217531, -2.2339363352, 0.2250735667, 0.1989246437, 3.2454230458, 0.0000000000, -9.4777246661, 5.0000000000, 0.9035000000
          99, -0.9606037150, 5.2977929431, 0.0000000000, 0.0000000000, 0.0000000000, -0.3255511396, 5.3034920919, -0.9286232803, 0.0000000000, -0.1813214909, -2.2294635520, 0.2316101120, 0.2022893479, 3.2498929306, 0.0000000000, -9.4795389625, 5.0000000000, 0.9128333333
         100, -0.8471078909, 5.0105801378, 0.0000000000, 0.0000000000, 0.0000000000, -0.2917835091, 5.0155997644, -0.8168623508, 0.0000000000, -0.1690638344, -2.2251711068, 0.2382136234, 0.2057892632, 3.2541815302, 0.0000000000, -9.4813515608, 5.0000000000, 0.9220000000
         101, -0.7315257866, 4.6952203400, 0.0000000000, 0.0000000000, 0.0000000000, -0.2570717592, 4.6995483696, -0.7031849972, 0.0000000000, -0.1558022273, -2.2210854955, 0.2447409806, 0.2094279186, 3.2582627965, 0.0000000000, -9.4831903196, 5.0000000000, 0.9315000000
         102, -0.6146181391, 4.3546018886, 0.0000000000, 0.0000000000, 0.0000000000, -0.2217618950, 4.3582307835, -0.5883345164, 0.0000000000, -0.1411422111, -2.2172443579, 0.2510267182, 0.2131756363, 3.2620995355, 0.0000000000, -9.4850781147, 5.0000000000, 0.9406666667
         103, -0.4965349175, 3.9925917479, 0.0000000000, 0.0000000000, 0.0000000000, -0.1857963355, 3.9955148049, -0.4724375444, 0.0000000000, -0.1243640594, -2.2136828193, 0.2569072189, 0.2170008501, 3.2656571146, 0.0000000000, -9.4870338412, 5.0000000000, 0.9500000000
         104, -0.3772302083, 3.6127453146, 0.0000000000, 0.0000000000, 0.0000000000, -0.1490651474, 3.6149554888, -0.3554267181, 0.0000000000, -0.1044164964, -2.2104263001, 0.2622145108, 0.2208130862, 3.2689105457, 0.0000000000, -9.4890484411, 5.0000000000, 0.9593333333
         105, -0.2568944838, 3.2175237973, 0.0000000000, 0.0000000000, 0.0000000000, -0.1115536334, 3.2190151482, -0.2374776571, 0.0000000000, -0.0798422949, -2.2075067848, 0.2668065809, 0.2245541812, 3.2718282464, 0.0000000000, -9.4911077210, 5.0000000000, 0.9686666667
         106, -0.1360788541, 2.8092339142, 0.0000000000, 0.0000000000, 0.0000000000, -0.0735242354, 2.8100037842, -0.1191275446, 0.0000000000, -0.0484398446, -2.2049329162, 0.2705621582, 0.2280895092, 3.2744018101, 0.0000000000, -9.4931898442, 5.0000000000, 0.9778333333
         107, -0.0153964912, 2.3904719209, 0.0000000000, 0.0000000000, 0.0000000000, -0.0352929429, 2.3905213047, -0.0009738772, 0.0000000000, -0.0064407747, -2.2027268737, 0.2734039093, 0.2313564766, 3.2766092284, 0.0000000000, -9.4952550855, 5.0000000000, 0.9871666667
         108, 0.1046060836, 1.9640440308, 0.0000000000, 0.0000000000, 0.0000000000, 0.0028790325, 1.9633771692, 0.1164537641, 0.0000000000, 0.0532605593, -2.2008677890, 0.2752954483, 0.2342147668, 3.2784712844, 0.0000000000, -9.4972901832, 5.0000000000, 0.9965000000