TITLE = "Visualization of the surface solution"
VARIABLES = "x","y","Conservative_1","Conservative_2","Conservative_3","Conservative_4","Conservative_5","Pressure","Pressure_Coefficient","Mach", "Temperature", "Laminar_Viscosity", "Skin_Friction_Coefficient", "Heat_Flux", "Y_Plus", "Eddy_Viscosity", "Sharp_Edge_Dist"
ZONE NODES= 256, ELEMENTS= 256, DATAPACKING=POINT, ZONETYPE=FELINESEG
1.000000e+00	5.352203e-08	4.499416e+01	0.000000e+00	0.000000e+00	9.686986e+06	1.000000e-10	3.874794e+06	4.149768e-01	0.000000e+00	3.000011e+02	1.845921e-05	1.289768e-06	-1.367304e-05	1.003274e+01	1.820581e-22	0.000000e+00	
9.979658e-01	2.881795e-04	4.499357e+01	0.000000e+00	0.000000e+00	9.686945e+06	1.000000e-10	3.874778e+06	2.948989e-01	0.000000e+00	3.000038e+02	1.845934e-05	1.931034e-02	-2.536451e-03	1.041537e+00	1.820447e-22	2.054475e-03	
9.957821e-01	5.967887e-04	4.499345e+01	0.000000e+00	0.000000e+00	9.686943e+06	1.000000e-10	3.874777e+06	2.883729e-01	0.000000e+00	3.000045e+02	1.845938e-05	2.696498e-02	-1.652853e-03	1.226927e+00	1.820418e-22	4.259930e-03	
9.979658e-01	-2.881795e-04	4.499357e+01	0.000000e+00	0.000000e+00	9.686946e+06	1.000000e-10	3.874778e+06	2.970276e-01	0.000000e+00	3.000038e+02	1.845934e-05	1.954172e-02	-2.510299e-03	1.047759e+00	1.820448e-22	2.054490e-03	
9.934385e-01	9.270489e-04	4.499347e+01	0.000000e+00	0.000000e+00	9.686940e+06	1.000000e-10	3.874776e+06	2.794435e-01	0.000000e+00	3.000043e+02	1.845936e-05	2.843245e-02	-8.667197e-04	1.256207e+00	1.820424e-22	6.626694e-03	
9.957821e-01	-5.967887e-04	4.499345e+01	0.000000e+00	0.000000e+00	9.686943e+06	1.000000e-10	3.874777e+06	2.890748e-01	0.000000e+00	3.000045e+02	1.845938e-05	2.697287e-02	-1.638420e-03	1.227107e+00	1.820418e-22	4.259945e-03	
9.909241e-01	1.280290e-03	4.499351e+01	0.000000e+00	0.000000e+00	9.686934e+06	1.000000e-10	3.874773e+06	2.611414e-01	0.000000e+00	3.000038e+02	1.845934e-05	2.683135e-02	-4.518872e-04	1.217024e+00	1.820437e-22	9.165706e-03	
9.934385e-01	-9.270489e-04	4.499347e+01	0.000000e+00	0.000000e+00	9.686940e+06	1.000000e-10	3.874776e+06	2.797802e-01	0.000000e+00	3.000043e+02	1.845936e-05	2.843002e-02	-8.532192e-04	1.256154e+00	1.820425e-22	6.626709e-03	
9.882276e-01	1.657893e-03	4.499353e+01	0.000000e+00	0.000000e+00	9.686927e+06	1.000000e-10	3.874771e+06	2.408645e-01	0.000000e+00	3.000035e+02	1.845933e-05	2.435463e-02	-4.671368e-04	1.156579e+00	1.820444e-22	1.188851e-02	
9.909241e-01	-1.280290e-03	4.499351e+01	0.000000e+00	0.000000e+00	9.686934e+06	1.000000e-10	3.874773e+06	2.613017e-01	0.000000e+00	3.000038e+02	1.845934e-05	2.684885e-02	-4.413781e-04	1.217421e+00	1.820437e-22	9.165721e-03	
9.853369e-01	2.061293e-03	4.499353e+01	0.000000e+00	0.000000e+00	9.686921e+06	1.000000e-10	3.874768e+06	2.246397e-01	0.000000e+00	3.000033e+02	1.845932e-05	2.244417e-02	-5.747133e-04	1.107693e+00	1.820447e-22	1.480727e-02	
9.882276e-01	-1.657893e-03	4.499353e+01	0.000000e+00	0.000000e+00	9.686927e+06	1.000000e-10	3.874771e+06	2.409004e-01	0.000000e+00	3.000035e+02	1.845933e-05	2.438566e-02	-4.567487e-04	1.157315e+00	1.820445e-22	1.188853e-02	
9.822392e-01	2.491970e-03	4.499353e+01	0.000000e+00	0.000000e+00	9.686918e+06	1.000000e-10	3.874767e+06	2.150233e-01	0.000000e+00	3.000032e+02	1.845931e-05	2.162937e-02	-5.617068e-04	1.085035e+00	1.820448e-22	1.793479e-02	
9.853369e-01	-2.061293e-03	4.499353e+01	0.000000e+00	0.000000e+00	9.686921e+06	1.000000e-10	3.874768e+06	2.245621e-01	0.000000e+00	3.000033e+02	1.845932e-05	2.248151e-02	-5.641408e-04	1.108614e+00	1.820448e-22	1.480729e-02	
9.789211e-01	2.951446e-03	4.499353e+01	0.000000e+00	0.000000e+00	9.686917e+06	1.000000e-10	3.874767e+06	2.113643e-01	0.000000e+00	3.000032e+02	1.845931e-05	2.168625e-02	-3.466823e-04	1.084265e+00	1.820450e-22	2.128449e-02	
9.822392e-01	-2.491970e-03	4.499353e+01	0.000000e+00	0.000000e+00	9.686918e+06	1.000000e-10	3.874767e+06	2.148455e-01	0.000000e+00	3.000032e+02	1.845931e-05	2.166889e-02	-5.485090e-04	1.086026e+00	1.820449e-22	1.793480e-02	
9.753688e-01	3.441283e-03	4.499355e+01	0.000000e+00	0.000000e+00	9.686918e+06	1.000000e-10	3.874767e+06	2.159306e-01	0.000000e+00	3.000031e+02	1.845931e-05	2.209365e-02	9.346624e-05	1.092348e+00	1.820453e-22	2.487043e-02	
9.789211e-01	-2.951446e-03	4.499353e+01	0.000000e+00	0.000000e+00	9.686917e+06	1.000000e-10	3.874767e+06	2.110964e-01	0.000000e+00	3.000031e+02	1.845931e-05	2.172575e-02	-3.299029e-04	1.085253e+00	1.820450e-22	2.128450e-02	
9.715675e-01	3.963073e-03	4.499357e+01	0.000000e+00	0.000000e+00	9.686921e+06	1.000000e-10	3.874769e+06	2.254881e-01	0.000000e+00	3.000030e+02	1.845931e-05	2.245574e-02	4.879558e-04	1.099342e+00	1.820458e-22	2.870732e-02	
9.753688e-01	-3.441283e-03	4.499355e+01	0.000000e+00	0.000000e+00	9.686918e+06	1.000000e-10	3.874767e+06	2.156419e-01	0.000000e+00	3.000031e+02	1.845931e-05	2.213250e-02	1.172855e-04	1.093307e+00	1.820453e-22	2.487045e-02	
9.675022e-01	4.518430e-03	4.499361e+01	0.000000e+00	0.000000e+00	9.686927e+06	1.000000e-10	3.874771e+06	2.417370e-01	0.000000e+00	3.000030e+02	1.845930e-05	2.265580e-02	1.457468e-03	1.102438e+00	1.820465e-22	3.281044e-02	
9.715675e-01	-3.963073e-03	4.499357e+01	0.000000e+00	0.000000e+00	9.686921e+06	1.000000e-10	3.874769e+06	2.252267e-01	0.000000e+00	3.000030e+02	1.845931e-05	2.249434e-02	5.136069e-04	1.100285e+00	1.820458e-22	2.870733e-02	
9.631568e-01	5.108981e-03	4.499365e+01	0.000000e+00	0.000000e+00	9.686934e+06	1.000000e-10	3.874774e+06	2.633544e-01	0.000000e+00	3.000029e+02	1.845930e-05	2.275352e-02	1.927314e-03	1.103151e+00	1.820473e-22	3.719570e-02	
9.675022e-01	-4.518430e-03	4.499361e+01	0.000000e+00	0.000000e+00	9.686927e+06	1.000000e-10	3.874771e+06	2.414925e-01	0.000000e+00	3.000030e+02	1.845930e-05	2.269423e-02	1.503163e-03	1.103373e+00	1.820465e-22	3.281045e-02	
9.585152e-01	5.736358e-03	4.499372e+01	0.000000e+00	0.000000e+00	9.686947e+06	1.000000e-10	3.874779e+06	2.994097e-01	0.000000e+00	3.000028e+02	1.845930e-05	2.283572e-02	3.522259e-03	1.103598e+00	1.820486e-22	4.187955e-02	
9.631568e-01	-5.108981e-03	4.499365e+01	0.000000e+00	0.000000e+00	9.686934e+06	1.000000e-10	3.874774e+06	2.632855e-01	0.000000e+00	3.000029e+02	1.845930e-05	2.279207e-02	1.959855e-03	1.104085e+00	1.820474e-22	3.719571e-02	
9.535602e-01	6.402178e-03	4.499378e+01	0.000000e+00	0.000000e+00	9.686958e+06	1.000000e-10	3.874783e+06	3.320417e-01	0.000000e+00	3.000027e+02	1.845929e-05	2.294085e-02	4.490747e-03	1.104702e+00	1.820497e-22	4.687897e-02	
9.585152e-01	-5.736358e-03	4.499372e+01	0.000000e+00	0.000000e+00	9.686947e+06	1.000000e-10	3.874779e+06	2.993952e-01	0.000000e+00	3.000028e+02	1.845930e-05	2.287421e-02	3.588935e-03	1.104529e+00	1.820486e-22	4.187957e-02	
9.482747e-01	7.108035e-03	4.499384e+01	0.000000e+00	0.000000e+00	9.686968e+06	1.000000e-10	3.874787e+06	3.624272e-01	0.000000e+00	3.000027e+02	1.845929e-05	2.306245e-02	5.284452e-03	1.106293e+00	1.820507e-22	5.221141e-02	
9.535602e-01	-6.402178e-03	4.499379e+01	0.000000e+00	0.000000e+00	9.686958e+06	1.000000e-10	3.874783e+06	3.322476e-01	0.000000e+00	3.000027e+02	1.845929e-05	2.297939e-02	4.529957e-03	1.105629e+00	1.820497e-22	4.687899e-02	
9.426407e-01	7.855481e-03	4.499391e+01	0.000000e+00	0.000000e+00	9.686981e+06	1.000000e-10	3.874793e+06	4.014020e-01	0.000000e+00	3.000026e+02	1.845929e-05	2.318515e-02	8.238512e-03	1.107994e+00	1.820519e-22	5.789470e-02	
9.482747e-01	-7.108035e-03	4.499384e+01	0.000000e+00	0.000000e+00	9.686968e+06	1.000000e-10	3.874787e+06	3.628363e-01	0.000000e+00	3.000027e+02	1.845929e-05	2.310111e-02	5.290422e-03	1.107220e+00	1.820507e-22	5.221142e-02	
9.366402e-01	8.646007e-03	4.499397e+01	0.000000e+00	0.000000e+00	9.686993e+06	1.000000e-10	3.874797e+06	4.347599e-01	0.000000e+00	3.000026e+02	1.845929e-05	2.329787e-02	6.791204e-03	1.109535e+00	1.820529e-22	6.394699e-02	
9.426407e-01	-7.855481e-03	4.499391e+01	0.000000e+00	0.000000e+00	9.686981e+06	1.000000e-10	3.874793e+06	4.016811e-01	0.000000e+00	3.000026e+02	1.845929e-05	2.322281e-02	8.285852e-03	1.108893e+00	1.820520e-22	5.789471e-02	
9.302548e-01	9.481022e-03	4.499409e+01	0.000000e+00	0.000000e+00	9.687019e+06	1.000000e-10	3.874807e+06	5.107956e-01	0.000000e+00	3.000026e+02	1.845928e-05	2.341217e-02	1.097922e-02	1.111186e+00	1.820550e-22	7.038666e-02	
9.366402e-01	-8.646007e-03	4.499397e+01	0.000000e+00	0.000000e+00	9.686993e+06	1.000000e-10	3.874797e+06	4.357676e-01	0.000000e+00	3.000026e+02	1.845928e-05	2.333572e-02	6.822766e-03	1.110435e+00	1.820529e-22	6.394700e-02	
9.234661e-01	1.036183e-02	4.499413e+01	0.000000e+00	0.000000e+00	9.687025e+06	1.000000e-10	3.874810e+06	5.297873e-01	0.000000e+00	3.000025e+02	1.845928e-05	2.351762e-02	1.188304e-02	1.112693e+00	1.820555e-22	7.723219e-02	
9.302548e-01	-9.481022e-03	4.499410e+01	0.000000e+00	0.000000e+00	9.687019e+06	1.000000e-10	3.874808e+06	5.112943e-01	0.000000e+00	3.000025e+02	1.845928e-05	2.345101e-02	1.118343e-02	1.112106e+00	1.820550e-22	7.038668e-02	
9.162555e-01	1.128962e-02	4.499432e+01	0.000000e+00	0.000000e+00	9.687066e+06	1.000000e-10	3.874827e+06	6.507551e-01	0.000000e+00	3.000026e+02	1.845928e-05	2.362476e-02	1.449538e-02	1.114307e+00	1.820585e-22	8.450203e-02	
9.234661e-01	-1.036183e-02	4.499413e+01	0.000000e+00	0.000000e+00	9.687025e+06	1.000000e-10	3.874810e+06	5.306296e-01	0.000000e+00	3.000025e+02	1.845928e-05	2.355585e-02	1.186292e-02	1.113597e+00	1.820555e-22	7.723221e-02	
9.086049e-01	1.226540e-02	4.499433e+01	0.000000e+00	0.000000e+00	9.687070e+06	1.000000e-10	3.874828e+06	6.624228e-01	0.000000e+00	3.000026e+02	1.845928e-05	2.372160e-02	1.604980e-02	1.115735e+00	1.820587e-22	9.221444e-02	
9.162555e-01	-1.128962e-02	4.499432e+01	0.000000e+00	0.000000e+00	9.687067e+06	1.000000e-10	3.874827e+06	6.521455e-01	0.000000e+00	3.000026e+02	1.845928e-05	2.366227e-02	1.455418e-02	1.115191e+00	1.820586e-22	8.450204e-02	
9.004963e-01	1.329003e-02	4.499456e+01	0.000000e+00	0.000000e+00	9.687122e+06	1.000000e-10	3.874849e+06	8.131474e-01	0.000000e+00	3.000027e+02	1.845929e-05	2.381708e-02	1.811219e-02	1.117187e+00	1.820623e-22	1.003873e-01	
9.086049e-01	-1.226540e-02	4.499434e+01	0.000000e+00	0.000000e+00	9.687071e+06	1.000000e-10	3.874828e+06	6.642088e-01	0.000000e+00	3.000026e+02	1.845928e-05	2.376007e-02	1.621305e-02	1.116638e+00	1.820588e-22	9.221445e-02	
8.919122e-01	1.436413e-02	4.499456e+01	0.000000e+00	0.000000e+00	9.687123e+06	1.000000e-10	3.874849e+06	8.177260e-01	0.000000e+00	3.000027e+02	1.845929e-05	2.390756e-02	2.038835e-02	1.118574e+00	1.820622e-22	1.090381e-01	
9.004963e-01	-1.329003e-02	4.499456e+01	0.000000e+00	0.000000e+00	9.687121e+06	1.000000e-10	3.874849e+06	8.124191e-01	0.000000e+00	3.000027e+02	1.845929e-05	2.385392e-02	1.789565e-02	1.118052e+00	1.820623e-22	1.003873e-01	
8.828360e-01	1.548810e-02	4.499477e+01	0.000000e+00	0.000000e+00	9.687174e+06	1.000000e-10	3.874870e+06	9.663690e-01	0.000000e+00	3.000028e+02	1.845930e-05	2.398515e-02	1.993087e-02	1.119710e+00	1.820656e-22	1.181832e-01	
8.919122e-01	-1.436413e-02	4.499457e+01	0.000000e+00	0.000000e+00	9.687125e+06	1.000000e-10	3.874850e+06	8.213635e-01	0.000000e+00	3.000027e+02	1.845929e-05	2.394569e-02	2.105939e-02	1.119465e+00	1.820624e-22	1.090381e-01	
8.732520e-01	1.666204e-02	4.499479e+01	0.000000e+00	0.000000e+00	9.687180e+06	1.000000e-10	3.874872e+06	9.841363e-01	0.000000e+00	3.000029e+02	1.845930e-05	2.406590e-02	2.427367e-02	1.120965e+00	1.820656e-22	1.278384e-01	
8.828360e-01	-1.548810e-02	4.499477e+01	0.000000e+00	0.000000e+00	9.687173e+06	1.000000e-10	3.874869e+06	9.631661e-01	0.000000e+00	3.000028e+02	1.845930e-05	2.402085e-02	1.886788e-02	1.120543e+00	1.820654e-22	1.181832e-01	
8.631457e-01	1.788578e-02	4.499496e+01	0.000000e+00	0.000000e+00	9.687221e+06	1.000000e-10	3.874888e+06	1.105147e+00	0.000000e+00	3.000031e+02	1.845931e-05	2.412983e-02	2.114059e-02	1.121874e+00	1.820682e-22	1.380181e-01	
8.732520e-01	-1.666204e-02	4.499481e+01	0.000000e+00	0.000000e+00	9.687183e+06	1.000000e-10	3.874873e+06	9.918878e-01	0.000000e+00	3.000029e+02	1.845930e-05	2.410487e-02	2.695246e-02	1.121871e+00	1.820660e-22	1.278385e-01	
8.525041e-01	1.915879e-02	4.499499e+01	0.000000e+00	0.000000e+00	9.687233e+06	1.000000e-10	3.874893e+06	1.138708e+00	0.000000e+00	3.000032e+02	1.845932e-05	2.419433e-02	2.529570e-02	1.122834e+00	1.820685e-22	1.487350e-01	
8.631457e-01	-1.788578e-02	4.499494e+01	0.000000e+00	0.000000e+00	9.687219e+06	1.000000e-10	3.874888e+06	1.097999e+00	0.000000e+00	3.000031e+02	1.845931e-05	2.416337e-02	1.807706e-02	1.122651e+00	1.820679e-22	1.380181e-01	
8.413160e-01	2.048016e-02	4.499511e+01	0.000000e+00	0.000000e+00	9.687263e+06	1.000000e-10	3.874905e+06	1.227732e+00	0.000000e+00	3.000034e+02	1.845932e-05	2.425057e-02	2.403520e-02	1.123643e+00	1.820702e-22	1.600001e-01	
8.525041e-01	-1.915879e-02	4.499502e+01	0.000000e+00	0.000000e+00	9.687238e+06	1.000000e-10	3.874895e+06	1.154696e+00	0.000000e+00	3.000032e+02	1.845931e-05	2.423460e-02	3.170086e-02	1.123768e+00	1.820691e-22	1.487350e-01	
8.295722e-01	2.184859e-02	4.499513e+01	0.000000e+00	0.000000e+00	9.687273e+06	1.000000e-10	3.874909e+06	1.258154e+00	0.000000e+00	3.000036e+02	1.845933e-05	2.429487e-02	2.239391e-02	1.124213e+00	1.820703e-22	1.718226e-01	
8.413160e-01	-2.048016e-02	4.499508e+01	0.000000e+00	0.000000e+00	9.687258e+06	1.000000e-10	3.874903e+06	1.213101e+00	0.000000e+00	3.000034e+02	1.845932e-05	2.428033e-02	1.772566e-02	1.124332e+00	1.820697e-22	1.600002e-01	
8.172658e-01	2.326236e-02	4.499522e+01	0.000000e+00	0.000000e+00	9.687296e+06	1.000000e-10	3.874918e+06	1.323453e+00	0.000000e+00	3.000037e+02	1.845934e-05	2.434228e-02	2.720669e-02	1.124888e+00	1.820716e-22	1.842089e-01	
8.295722e-01	-2.184859e-02	4.499518e+01	0.000000e+00	0.000000e+00	9.687282e+06	1.000000e-10	3.874913e+06	1.284362e+00	0.000000e+00	3.000035e+02	1.845933e-05	2.433577e-02	3.232478e-02	1.125159e+00	1.820713e-22	1.718226e-01	
8.043927e-01	2.471926e-02	4.499521e+01	0.000000e+00	0.000000e+00	9.687300e+06	1.000000e-10	3.874920e+06	1.335997e+00	0.000000e+00	3.000039e+02	1.845935e-05	2.437358e-02	1.926405e-02	1.125224e+00	1.820711e-22	1.971630e-01	
8.172658e-01	-2.326236e-02	4.499518e+01	0.000000e+00	0.000000e+00	9.687289e+06	1.000000e-10	3.874916e+06	1.303646e+00	0.000000e+00	3.000037e+02	1.845934e-05	2.437367e-02	1.812170e-02	1.125612e+00	1.820708e-22	1.842089e-01	
7.909518e-01	2.621660e-02	4.499526e+01	0.000000e+00	0.000000e+00	9.687315e+06	1.000000e-10	3.874926e+06	1.379774e+00	0.000000e+00	3.000039e+02	1.845935e-05	2.440671e-02	2.650280e-02	1.125635e+00	1.820719e-22	2.106857e-01	
8.043927e-01	-2.471926e-02	4.499526e+01	0.000000e+00	0.000000e+00	9.687310e+06	1.000000e-10	3.874924e+06	1.364364e+00	0.000000e+00	3.000038e+02	1.845934e-05	2.441100e-02	2.910766e-02	1.126089e+00	1.820721e-22	1.971630e-01	
7.769449e-01	2.775117e-02	4.499523e+01	0.000000e+00	0.000000e+00	9.687313e+06	1.000000e-10	3.874925e+06	1.374355e+00	0.000000e+00	3.000041e+02	1.845936e-05	2.442874e-02	1.763466e-02	1.125817e+00	1.820711e-22	2.247747e-01	
7.909518e-01	-2.621660e-02	4.499523e+01	0.000000e+00	0.000000e+00	9.687309e+06	1.000000e-10	3.874924e+06	1.362249e+00	0.000000e+00	3.000040e+02	1.845935e-05	2.443952e-02	1.827660e-02	1.126391e+00	1.820713e-22	2.106857e-01	
7.623778e-01	2.931924e-02	4.499525e+01	0.000000e+00	0.000000e+00	9.687321e+06	1.000000e-10	3.874929e+06	1.398870e+00	0.000000e+00	3.000042e+02	1.845936e-05	2.444763e-02	2.224453e-02	1.125956e+00	1.820714e-22	2.394242e-01	
7.769449e-01	-2.775117e-02	4.499527e+01	0.000000e+00	0.000000e+00	9.687321e+06	1.000000e-10	3.874929e+06	1.398858e+00	0.000000e+00	3.000041e+02	1.845936e-05	2.446269e-02	2.459192e-02	1.126600e+00	1.820719e-22	2.247747e-01	
7.472594e-01	3.091649e-02	4.499520e+01	0.000000e+00	0.000000e+00	9.687315e+06	1.000000e-10	3.874926e+06	1.380721e+00	0.000000e+00	3.000043e+02	1.845937e-05	2.446041e-02	1.564686e-02	1.125981e+00	1.820704e-22	2.546245e-01	
7.623778e-01	-2.931924e-02	4.499523e+01	0.000000e+00	0.000000e+00	9.687316e+06	1.000000e-10	3.874927e+06	1.384692e+00	0.000000e+00	3.000042e+02	1.845936e-05	2.447967e-02	1.653342e-02	1.126693e+00	1.820709e-22	2.394242e-01	
7.316032e-01	3.253806e-02	4.499521e+01	0.000000e+00	0.000000e+00	9.687318e+06	1.000000e-10	3.874927e+06	1.388584e+00	0.000000e+00	3.000044e+02	1.845937e-05	2.447005e-02	1.756449e-02	1.125958e+00	1.820704e-22	2.703620e-01	
7.472594e-01	-3.091649e-02	4.499524e+01	0.000000e+00	0.000000e+00	9.687322e+06	1.000000e-10	3.874929e+06	1.401349e+00	0.000000e+00	3.000043e+02	1.845937e-05	2.449308e-02	2.040537e-02	1.126733e+00	1.820710e-22	2.546245e-01	
7.154262e-01	3.417852e-02	4.499517e+01	0.000000e+00	0.000000e+00	9.687312e+06	1.000000e-10	3.874925e+06	1.370990e+00	0.000000e+00	3.000045e+02	1.845938e-05	2.448229e-02	1.383346e-02	1.126018e+00	1.820696e-22	2.866190e-01	
7.316032e-01	-3.253806e-02	4.499519e+01	0.000000e+00	0.000000e+00	9.687316e+06	1.000000e-10	3.874926e+06	1.383533e+00	0.000000e+00	3.000044e+02	1.845937e-05	2.450381e-02	1.466353e-02	1.126735e+00	1.820701e-22	2.703620e-01	
6.987499e-01	3.583186e-02	4.499512e+01	0.000000e+00	0.000000e+00	9.687304e+06	1.000000e-10	3.874922e+06	1.348398e+00	0.000000e+00	3.000046e+02	1.845938e-05	2.448345e-02	1.193624e-02	1.125846e+00	1.820688e-22	3.033736e-01	
7.154262e-01	-3.417852e-02	4.499518e+01	0.000000e+00	0.000000e+00	9.687315e+06	1.000000e-10	3.874926e+06	1.379308e+00	0.000000e+00	3.000045e+02	1.845938e-05	2.450811e-02	1.511666e-02	1.126612e+00	1.820698e-22	2.866190e-01	
6.816001e-01	3.749149e-02	4.499505e+01	0.000000e+00	0.000000e+00	9.687290e+06	1.000000e-10	3.874916e+06	1.307783e+00	0.000000e+00	3.000046e+02	1.845938e-05	2.448879e-02	9.279643e-03	1.125792e+00	1.820676e-22	3.205996e-01	
6.987499e-01	-3.583186e-02	4.499512e+01	0.000000e+00	0.000000e+00	9.687305e+06	1.000000e-10	3.874922e+06	1.350789e+00	0.000000e+00	3.000046e+02	1.845938e-05	2.451585e-02	1.173375e-02	1.126591e+00	1.820688e-22	3.033736e-01	
6.640066e-01	3.915032e-02	4.499495e+01	0.000000e+00	0.000000e+00	9.687269e+06	1.000000e-10	3.874908e+06	1.245888e+00	0.000000e+00	3.000046e+02	1.845938e-05	2.448056e-02	6.166442e-03	1.125447e+00	1.820659e-22	3.382667e-01	
6.816001e-01	-3.749149e-02	4.499506e+01	0.000000e+00	0.000000e+00	9.687292e+06	1.000000e-10	3.874917e+06	1.312621e+00	0.000000e+00	3.000046e+02	1.845938e-05	2.451639e-02	9.189292e-03	1.126427e+00	1.820676e-22	3.205996e-01	
6.460033e-01	4.080073e-02	4.499486e+01	0.000000e+00	0.000000e+00	9.687250e+06	1.000000e-10	3.874900e+06	1.190179e+00	0.000000e+00	3.000046e+02	1.845938e-05	2.446441e-02	5.593302e-03	1.124938e+00	1.820645e-22	3.563402e-01	
6.640066e-01	-3.915032e-02	4.499496e+01	0.000000e+00	0.000000e+00	9.687272e+06	1.000000e-10	3.874909e+06	1.253166e+00	0.000000e+00	3.000046e+02	1.845938e-05	2.450855e-02	6.156930e-03	1.126090e+00	1.820660e-22	3.382667e-01	
6.276283e-01	4.243463e-02	4.499478e+01	0.000000e+00	0.000000e+00	9.687233e+06	1.000000e-10	3.874893e+06	1.140050e+00	0.000000e+00	3.000046e+02	1.845938e-05	2.445289e-02	4.119292e-03	1.124555e+00	1.820632e-22	3.747818e-01	
6.460033e-01	-4.080073e-02	4.499487e+01	0.000000e+00	0.000000e+00	9.687252e+06	1.000000e-10	3.874901e+06	1.196903e+00	0.000000e+00	3.000046e+02	1.845938e-05	2.449224e-02	5.633028e-03	1.125578e+00	1.820646e-22	3.563402e-01	
6.089231e-01	4.404353e-02	4.499470e+01	0.000000e+00	0.000000e+00	9.687215e+06	1.000000e-10	3.874886e+06	1.085724e+00	0.000000e+00	3.000046e+02	1.845938e-05	2.444159e-02	2.612789e-03	1.124196e+00	1.820619e-22	3.935492e-01	
6.276283e-01	-4.243463e-02	4.499479e+01	0.000000e+00	0.000000e+00	9.687236e+06	1.000000e-10	3.874894e+06	1.147144e+00	0.000000e+00	3.000046e+02	1.845938e-05	2.447928e-02	4.155737e-03	1.125162e+00	1.820633e-22	3.747818e-01	
5.899328e-01	4.561861e-02	4.499462e+01	0.000000e+00	0.000000e+00	9.687195e+06	1.000000e-10	3.874878e+06	1.028267e+00	0.000000e+00	3.000045e+02	1.845938e-05	2.442813e-02	1.147764e-03	1.123805e+00	1.820606e-22	4.125969e-01	
6.089231e-01	-4.404353e-02	4.499471e+01	0.000000e+00	0.000000e+00	9.687217e+06	1.000000e-10	3.874887e+06	1.093463e+00	0.000000e+00	3.000046e+02	1.845938e-05	2.446696e-02	2.656333e-03	1.124779e+00	1.820621e-22	3.935492e-01	
5.707054e-01	4.715081e-02	4.499453e+01	0.000000e+00	0.000000e+00	9.687175e+06	1.000000e-10	3.874870e+06	9.684123e-01	0.000000e+00	3.000045e+02	1.845937e-05	2.441433e-02	-4.489483e-04	1.123422e+00	1.820594e-22	4.318762e-01	
5.899328e-01	-4.561861e-02	4.499463e+01	0.000000e+00	0.000000e+00	9.687198e+06	1.000000e-10	3.874879e+06	1.036358e+00	0.000000e+00	3.000046e+02	1.845938e-05	2.445295e-02	1.175917e-03	1.124375e+00	1.820608e-22	4.125969e-01	
5.512916e-01	4.863091e-02	4.499444e+01	0.000000e+00	0.000000e+00	9.687153e+06	1.000000e-10	3.874861e+06	9.053762e-01	0.000000e+00	3.000044e+02	1.845937e-05	2.440239e-02	-1.122161e-03	1.123100e+00	1.820581e-22	4.513360e-01	
5.707054e-01	-4.715081e-02	4.499454e+01	0.000000e+00	0.000000e+00	9.687178e+06	1.000000e-10	3.874871e+06	9.771124e-01	0.000000e+00	3.000045e+02	1.845938e-05	2.443777e-02	-4.190941e-04	1.123961e+00	1.820595e-22	4.318762e-01	
5.317439e-01	5.004967e-02	4.499435e+01	0.000000e+00	0.000000e+00	9.687130e+06	1.000000e-10	3.874852e+06	8.373039e-01	0.000000e+00	3.000043e+02	1.845937e-05	2.439375e-02	-1.570678e-03	1.122870e+00	1.820567e-22	4.709232e-01	
5.512916e-01	-4.863091e-02	4.499446e+01	0.000000e+00	0.000000e+00	9.687156e+06	1.000000e-10	3.874863e+06	9.146776e-01	0.000000e+00	3.000044e+02	1.845937e-05	2.442505e-02	-1.078546e-03	1.123621e+00	1.820582e-22	4.513360e-01	
5.121166e-01	5.139795e-02	4.499426e+01	0.000000e+00	0.000000e+00	9.687106e+06	1.000000e-10	3.874842e+06	7.666759e-01	0.000000e+00	3.000042e+02	1.845936e-05	2.439317e-02	-2.208521e-03	1.122842e+00	1.820554e-22	4.905833e-01	
5.317439e-01	-5.004967e-02	4.499436e+01	0.000000e+00	0.000000e+00	9.687133e+06	1.000000e-10	3.874853e+06	8.472528e-01	0.000000e+00	3.000043e+02	1.845937e-05	2.441513e-02	-1.533841e-03	1.123362e+00	1.820569e-22	4.709232e-01	
4.924646e-01	5.266684e-02	4.499416e+01	0.000000e+00	0.000000e+00	9.687081e+06	1.000000e-10	3.874832e+06	6.924589e-01	0.000000e+00	3.000040e+02	1.845935e-05	2.437412e-02	-2.836517e-03	1.122405e+00	1.820540e-22	5.102607e-01	
5.121166e-01	-5.139795e-02	4.499427e+01	0.000000e+00	0.000000e+00	9.687110e+06	1.000000e-10	3.874844e+06	7.773740e-01	0.000000e+00	3.000042e+02	1.845936e-05	2.441322e-02	-2.175803e-03	1.123303e+00	1.820555e-22	4.905833e-01	
4.728433e-01	5.384781e-02	4.499406e+01	0.000000e+00	0.000000e+00	9.687054e+06	1.000000e-10	3.874822e+06	6.156840e-01	0.000000e+00	3.000039e+02	1.845935e-05	2.435092e-02	-3.363527e-03	1.121889e+00	1.820526e-22	5.298998e-01	
4.924646e-01	-5.266684e-02	4.499417e+01	0.000000e+00	0.000000e+00	9.687084e+06	1.000000e-10	3.874834e+06	7.039477e-01	0.000000e+00	3.000041e+02	1.845935e-05	2.439311e-02	-2.804930e-03	1.122842e+00	1.820541e-22	5.102607e-01	
4.533078e-01	5.493285e-02	4.499396e+01	0.000000e+00	0.000000e+00	9.687028e+06	1.000000e-10	3.874811e+06	5.368865e-01	0.000000e+00	3.000037e+02	1.845934e-05	2.433385e-02	-3.760404e-03	1.121531e+00	1.820512e-22	5.494452e-01	
4.728433e-01	-5.384781e-02	4.499408e+01	0.000000e+00	0.000000e+00	9.687059e+06	1.000000e-10	3.874823e+06	6.279993e-01	0.000000e+00	3.000039e+02	1.845935e-05	2.436848e-02	-3.337390e-03	1.122293e+00	1.820528e-22	5.298998e-01	
4.339121e-01	5.591460e-02	4.499386e+01	0.000000e+00	0.000000e+00	9.686999e+06	1.000000e-10	3.874800e+06	4.544721e-01	0.000000e+00	3.000035e+02	1.845933e-05	2.431755e-02	-3.919844e-03	1.121205e+00	1.820498e-22	5.688427e-01	
4.533078e-01	-5.493285e-02	4.499398e+01	0.000000e+00	0.000000e+00	9.687032e+06	1.000000e-10	3.874813e+06	5.500999e-01	0.000000e+00	3.000037e+02	1.845934e-05	2.435011e-02	-3.734261e-03	1.121904e+00	1.820514e-22	5.494452e-01	
4.147089e-01	5.678649e-02	4.499375e+01	0.000000e+00	0.000000e+00	9.686970e+06	1.000000e-10	3.874788e+06	3.679300e-01	0.000000e+00	3.000033e+02	1.845932e-05	2.429923e-02	-4.117307e-03	1.120851e+00	1.820484e-22	5.880394e-01	
4.339121e-01	-5.591460e-02	4.499388e+01	0.000000e+00	0.000000e+00	9.687004e+06	1.000000e-10	3.874802e+06	4.686230e-01	0.000000e+00	3.000036e+02	1.845933e-05	2.433221e-02	-3.895337e-03	1.121543e+00	1.820500e-22	5.688427e-01	
3.957488e-01	5.754285e-02	4.499364e+01	0.000000e+00	0.000000e+00	9.686939e+06	1.000000e-10	3.874776e+06	2.773712e-01	0.000000e+00	3.000031e+02	1.845931e-05	2.427765e-02	-4.334996e-03	1.120438e+00	1.820469e-22	6.069849e-01	
4.147089e-01	-5.678649e-02	4.499377e+01	0.000000e+00	0.000000e+00	9.686975e+06	1.000000e-10	3.874790e+06	3.830731e-01	0.000000e+00	3.000034e+02	1.845932e-05	2.431237e-02	-4.093979e-03	1.121153e+00	1.820486e-22	5.880395e-01	
3.770798e-01	5.817904e-02	4.499352e+01	0.000000e+00	0.000000e+00	9.686906e+06	1.000000e-10	3.874763e+06	1.809210e-01	0.000000e+00	3.000029e+02	1.845930e-05	2.425131e-02	-4.553812e-03	1.119933e+00	1.820453e-22	6.256312e-01	
3.957488e-01	-5.754285e-02	4.499366e+01	0.000000e+00	0.000000e+00	9.686945e+06	1.000000e-10	3.874778e+06	2.935376e-01	0.000000e+00	3.000032e+02	1.845931e-05	2.428907e-02	-4.312787e-03	1.120702e+00	1.820471e-22	6.069849e-01	
3.587470e-01	5.869148e-02	4.499340e+01	0.000000e+00	0.000000e+00	9.686871e+06	1.000000e-10	3.874748e+06	7.743435e-02	0.000000e+00	3.000026e+02	1.845929e-05	2.421798e-02	-4.891336e-03	1.119284e+00	1.820436e-22	6.439333e-01	
3.770798e-01	-5.817904e-02	4.499354e+01	0.000000e+00	0.000000e+00	9.686912e+06	1.000000e-10	3.874765e+06	1.981810e-01	0.000000e+00	3.000029e+02	1.845930e-05	2.426099e-02	-4.531684e-03	1.120157e+00	1.820455e-22	6.256312e-01	
3.407920e-01	5.907774e-02	4.499326e+01	0.000000e+00	0.000000e+00	9.686833e+06	1.000000e-10	3.874733e+06	-3.381880e-02	0.000000e+00	3.000024e+02	1.845927e-05	2.417595e-02	-5.450661e-03	1.118453e+00	1.820417e-22	6.618499e-01	
3.587470e-01	-5.869148e-02	4.499342e+01	0.000000e+00	0.000000e+00	9.686877e+06	1.000000e-10	3.874751e+06	9.583551e-02	0.000000e+00	3.000027e+02	1.845929e-05	2.422586e-02	-4.871030e-03	1.119467e+00	1.820438e-22	6.439333e-01	
3.232528e-01	5.933656e-02	4.499311e+01	0.000000e+00	0.000000e+00	9.686792e+06	1.000000e-10	3.874717e+06	-1.529453e-01	0.000000e+00	3.000021e+02	1.845926e-05	2.412321e-02	-6.321724e-03	1.117391e+00	1.820397e-22	6.793435e-01	
3.407920e-01	-5.907774e-02	4.499328e+01	0.000000e+00	0.000000e+00	9.686840e+06	1.000000e-10	3.874736e+06	-1.422122e-02	0.000000e+00	3.000024e+02	1.845928e-05	2.418186e-02	-5.432799e-03	1.118590e+00	1.820420e-22	6.618500e-01	
3.061635e-01	5.946785e-02	4.499295e+01	0.000000e+00	0.000000e+00	9.686749e+06	1.000000e-10	3.874700e+06	-2.794270e-01	0.000000e+00	3.000019e+02	1.845925e-05	2.405770e-02	-7.493380e-03	1.116052e+00	1.820374e-22	6.963803e-01	
3.232528e-01	-5.933656e-02	4.499313e+01	0.000000e+00	0.000000e+00	9.686800e+06	1.000000e-10	3.874720e+06	-1.320818e-01	0.000000e+00	3.000022e+02	1.845927e-05	2.412719e-02	-6.306665e-03	1.117484e+00	1.820400e-22	6.793435e-01	
2.895540e-01	5.947265e-02	4.499278e+01	0.000000e+00	0.000000e+00	9.686704e+06	1.000000e-10	3.874682e+06	-4.124794e-01	0.000000e+00	3.000016e+02	1.845924e-05	2.399379e-02	-8.752419e-03	1.114770e+00	1.820350e-22	7.129309e-01	
3.061635e-01	-5.946785e-02	4.499298e+01	0.000000e+00	0.000000e+00	9.686757e+06	1.000000e-10	3.874703e+06	-2.572278e-01	0.000000e+00	3.000019e+02	1.845925e-05	2.405959e-02	-7.481547e-03	1.116096e+00	1.820377e-22	6.963803e-01	
2.734501e-01	5.935312e-02	4.499261e+01	0.000000e+00	0.000000e+00	9.686658e+06	1.000000e-10	3.874663e+06	-5.472573e-01	0.000000e+00	3.000013e+02	1.845922e-05	2.394072e-02	-9.851735e-03	1.113760e+00	1.820326e-22	7.289702e-01	
2.895540e-01	-5.947265e-02	4.499281e+01	0.000000e+00	0.000000e+00	9.686712e+06	1.000000e-10	3.874685e+06	-3.888743e-01	0.000000e+00	3.000017e+02	1.845924e-05	2.399349e-02	-8.742612e-03	1.114764e+00	1.820354e-22	7.129309e-01	
2.578733e-01	5.911242e-02	4.499244e+01	0.000000e+00	0.000000e+00	9.686612e+06	1.000000e-10	3.874645e+06	-6.810683e-01	0.000000e+00	3.000010e+02	1.845921e-05	2.388591e-02	-1.044365e-02	1.112732e+00	1.820303e-22	7.444772e-01	
2.734501e-01	-5.935312e-02	4.499264e+01	0.000000e+00	0.000000e+00	9.686667e+06	1.000000e-10	3.874667e+06	-5.221605e-01	0.000000e+00	3.000014e+02	1.845923e-05	2.393801e-02	-9.843904e-03	1.113697e+00	1.820330e-22	7.289702e-01	
2.428411e-01	5.875465e-02	4.499228e+01	0.000000e+00	0.000000e+00	9.686568e+06	1.000000e-10	3.874627e+06	-8.111929e-01	0.000000e+00	3.000007e+02	1.845920e-05	2.383485e-02	-1.048417e-02	1.111815e+00	1.820282e-22	7.594352e-01	
2.578733e-01	-5.911242e-02	4.499247e+01	0.000000e+00	0.000000e+00	9.686622e+06	1.000000e-10	3.874649e+06	-6.544114e-01	0.000000e+00	3.000011e+02	1.845921e-05	2.388085e-02	-1.043694e-02	1.112615e+00	1.820307e-22	7.444772e-01	
2.283666e-01	5.828472e-02	4.499214e+01	0.000000e+00	0.000000e+00	9.686526e+06	1.000000e-10	3.874610e+06	-9.343762e-01	0.000000e+00	3.000004e+02	1.845918e-05	2.378906e-02	-1.004257e-02	1.111046e+00	1.820263e-22	7.738315e-01	
2.428411e-01	-5.875465e-02	4.499231e+01	0.000000e+00	0.000000e+00	9.686578e+06	1.000000e-10	3.874631e+06	-7.829056e-01	0.000000e+00	3.000008e+02	1.845920e-05	2.382734e-02	-1.047892e-02	1.111640e+00	1.820286e-22	7.594352e-01	
2.144593e-01	5.770827e-02	4.499201e+01	0.000000e+00	0.000000e+00	9.686487e+06	1.000000e-10	3.874595e+06	-1.047981e+00	0.000000e+00	3.000000e+02	1.845916e-05	2.374918e-02	-9.252014e-03	1.110442e+00	1.820247e-22	7.876576e-01	
2.283666e-01	-5.828472e-02	4.499217e+01	0.000000e+00	0.000000e+00	9.686536e+06	1.000000e-10	3.874615e+06	-9.043942e-01	0.000000e+00	3.000005e+02	1.845918e-05	2.377921e-02	-1.004049e-02	1.110817e+00	1.820267e-22	7.738315e-01	
2.011248e-01	5.703151e-02	4.499189e+01	0.000000e+00	0.000000e+00	9.686453e+06	1.000000e-10	3.874581e+06	-1.150206e+00	0.000000e+00	2.999997e+02	1.845915e-05	2.371318e-02	-8.191777e-03	1.109958e+00	1.820233e-22	8.009083e-01	
2.144593e-01	-5.770827e-02	4.499204e+01	0.000000e+00	0.000000e+00	9.686498e+06	1.000000e-10	3.874599e+06	-1.016239e+00	0.000000e+00	3.000001e+02	1.845917e-05	2.373683e-02	-9.253421e-03	1.110153e+00	1.820251e-22	7.876576e-01	